#INFO: **** input file is /lustre06/project/6058907/jaafar1/PySCF-MRCC/Oxygen/Cation/+1/AE/aCV3Z/input.py ****
import pyscf
from pyscf import cc, lib, tools, scf, symm, ao2mo
from pyscf.gto.basis import parse_gaussian
from pyscf.cc.mrcc import MRCCInterface

name = 'out'
mol = pyscf.M(
    atom = '''
        O
    ''',
    unit = 'angstrom',
    basis = {
            'O' : parse_gaussian.load('O-aCVTZ-EMSL.gbs', 'O')
    },
    charge = 1,
    spin = 3,
    symmetry = True,
    verbose = 9,
    symmetry_subgroup = 'D2h',
    output = name +'.txt',
    max_memory = 4000,
)
mf = mol.UHF().set(conv_tol=1e-14,max_cycle=9999,ddm_tol=1e-14,direct_scf_tol=1e-14,chkfile=name+'.chk',init_guess='atom',irrep_nelec={'Ag': 4, 'B3u':1 , 'B2u':1 ,'B1u':1 })
mf.kernel()

#pyscf.tools.fcidump.from_chkfile_uhf('FCIdump',name+'.chk',tol=1e-18, float_format='% 0.20E',molpro_orbsym=False,orbsym=None)
pyscf.tools.fcidump.from_scf_uhf(mf,'fort.55',tol=1e-18, float_format='% 0.20E',molpro_orbsym=False)

#MRCCInterface.run_mrcc(mf, fort_file='fort.55', mrcc_input_file='MINP', tol=1e-18, float_format='% 0.20E', molpro_orbsym=False)
#INFO: ******************** input file end ********************


System: uname_result(system='Linux', node='nc10354.narval.calcul.quebec', release='4.18.0-553.40.1.el8_10.x86_64', version='#1 SMP Thu Feb 13 13:28:49 UTC 2025', machine='x86_64')  Threads 4
Python 3.12.4 (main, Jun  7 2024, 23:47:47) [GCC 13.3.0]
numpy 2.1.1  scipy 1.14.1  h5py 3.12.0
Date: Mon Feb 17 01:10:13 2025
PySCF version 2.7.0
PySCF path  /home/jaafar1/projects/def-nike-ab/jaafar1/VENV/MRCCInterface/lib/python3.12/site-packages/pyscf

[CONFIG] ARGPARSE = False
[CONFIG] DEBUG = False
[CONFIG] MAX_MEMORY = 4000
[CONFIG] TMPDIR = /tmp
[CONFIG] UNIT = angstrom
[CONFIG] VERBOSE = 3
[CONFIG] conf_file = None
[INPUT] verbose = 9
[INPUT] max_memory = 4000 
[INPUT] num. atoms = 1
[INPUT] num. electrons = 7
[INPUT] charge = 1
[INPUT] spin (= nelec alpha-beta = 2S) = 3
[INPUT] symmetry True subgroup D2h
[INPUT] Mole.unit = angstrom
[INPUT] Symbol           X                Y                Z      unit          X                Y                Z       unit  Magmom
[INPUT]  1 O      0.000000000000   0.000000000000   0.000000000000 AA    0.000000000000   0.000000000000   0.000000000000 Bohr   0.0
[INPUT] ---------------- BASIS SET ---------------- 
[INPUT] l, kappa, [nprim/nctr], expnt,             c_1 c_2 ...
[INPUT] O
[INPUT] 0    0    [1    /1   ]  21.032               1
[INPUT] 0    0    [10   /2   ]  15330             0.000508 -0.000115
                                2299              0.003929 -0.000895
                                522.4             0.020243 -0.004636
                                147.3             0.079181 -0.018724
                                47.55             0.230687 -0.058463
                                16.76             0.433118 -0.136463
                                6.207             0.35026 -0.17574
                                1.752             0.042728 0.160934
                                0.6882            -0.008154 0.603418
                                0.2384            0.002381 0.378765
[INPUT] 0    0    [1    /1   ]  7.845                1
[INPUT] 0    0    [1    /1   ]  1.752                1
[INPUT] 0    0    [1    /1   ]  0.2384               1
[INPUT] 0    0    [1    /1   ]  0.07376              1
[INPUT] 1    0    [1    /1   ]  57.437               1
[INPUT] 1    0    [1    /1   ]  15.159               1
[INPUT] 1    0    [1    /1   ]  0.7156               1
[INPUT] 1    0    [5    /1   ]  34.46             0.015928
                                7.749             0.09974
                                2.28              0.310492
                                0.7156            0.491026
                                0.214             0.336337
[INPUT] 1    0    [1    /1   ]  0.214                1
[INPUT] 1    0    [1    /1   ]  0.05974              1
[INPUT] 2    0    [1    /1   ]  15.858               1
[INPUT] 2    0    [1    /1   ]  2.314                1
[INPUT] 2    0    [1    /1   ]  0.645                1
[INPUT] 2    0    [1    /1   ]  0.214                1
[INPUT] 3    0    [1    /1   ]  1.428                1
[INPUT] 3    0    [1    /1   ]  0.5                  1

nuclear repulsion = 0
point group symmetry = SO3, use subgroup D2h
symmetry origin: [0. 0. 0.]
symmetry axis x: [1. 0. 0.]
symmetry axis y: [0. 1. 0.]
symmetry axis z: [0. 0. 1.]
num. orbitals of irrep Ag = 15
num. orbitals of irrep B1g = 4
num. orbitals of irrep B2g = 4
num. orbitals of irrep B3g = 4
num. orbitals of irrep Au = 2
num. orbitals of irrep B1u = 10
num. orbitals of irrep B2u = 10
num. orbitals of irrep B3u = 10
number of shells = 18
number of NR pGTOs = 79
number of NR cGTOs = 59
basis = {'O': [[0, [21.032, 1.0]], [0, [15330.0, 0.000508, -0.000115], [2299.0, 0.003929, -0.000895], [522.4, 0.020243, -0.004636], [147.3, 0.079181, -0.018724], [47.55, 0.230687, -0.058463], [16.76, 0.433118, -0.136463], [6.207, 0.35026, -0.17574], [1.752, 0.042728, 0.160934], [0.6882, -0.008154, 0.603418], [0.2384, 0.002381, 0.378765]], [0, [7.845, 1.0]], [0, [1.752, 1.0]], [0, [0.2384, 1.0]], [0, [0.07376, 1.0]], [1, [57.437, 1.0]], [1, [15.159, 1.0]], [1, [0.7156, 1.0]], [1, [34.46, 0.015928], [7.749, 0.09974], [2.28, 0.310492], [0.7156, 0.491026], [0.214, 0.336337]], [1, [0.214, 1.0]], [1, [0.05974, 1.0]], [2, [15.858, 1.0]], [2, [2.314, 1.0]], [2, [0.645, 1.0]], [2, [0.214, 1.0]], [3, [1.428, 1.0]], [3, [0.5, 1.0]]]}
ecp = {}
bas 0, expnt(s) = [21.032]
bas 1, expnt(s) = [1.533e+04 2.299e+03 5.224e+02 1.473e+02 4.755e+01 1.676e+01 6.207e+00
 1.752e+00 6.882e-01 2.384e-01]
bas 2, expnt(s) = [7.845]
bas 3, expnt(s) = [1.752]
bas 4, expnt(s) = [0.2384]
bas 5, expnt(s) = [0.07376]
bas 6, expnt(s) = [57.437]
bas 7, expnt(s) = [15.159]
bas 8, expnt(s) = [0.7156]
bas 9, expnt(s) = [34.46    7.749   2.28    0.7156  0.214 ]
bas 10, expnt(s) = [0.214]
bas 11, expnt(s) = [0.05974]
bas 12, expnt(s) = [15.858]
bas 13, expnt(s) = [2.314]
bas 14, expnt(s) = [0.645]
bas 15, expnt(s) = [0.214]
bas 16, expnt(s) = [1.428]
bas 17, expnt(s) = [0.5]
CPU time:         0.96
arg.atm = [[ 8 20  1 23  0  0]]
arg.bas = [[ 0  0  1  1  0 24 25  0]
 [ 0  0 10  2  0 26 36  0]
 [ 0  0  1  1  0 56 57  0]
 [ 0  0  1  1  0 58 59  0]
 [ 0  0  1  1  0 60 61  0]
 [ 0  0  1  1  0 62 63  0]
 [ 0  1  1  1  0 64 65  0]
 [ 0  1  1  1  0 66 67  0]
 [ 0  1  1  1  0 68 69  0]
 [ 0  1  5  1  0 70 75  0]
 [ 0  1  1  1  0 80 81  0]
 [ 0  1  1  1  0 82 83  0]
 [ 0  2  1  1  0 84 85  0]
 [ 0  2  1  1  0 86 87  0]
 [ 0  2  1  1  0 88 89  0]
 [ 0  2  1  1  0 90 91  0]
 [ 0  3  1  1  0 92 93  0]
 [ 0  3  1  1  0 94 95  0]]
arg.env = [ 0.00000000e+00  0.00000000e+00  0.00000000e+00  0.00000000e+00
  0.00000000e+00  0.00000000e+00  0.00000000e+00  0.00000000e+00
  0.00000000e+00  0.00000000e+00  0.00000000e+00  0.00000000e+00
  0.00000000e+00  0.00000000e+00  0.00000000e+00  0.00000000e+00
  0.00000000e+00  0.00000000e+00  0.00000000e+00  0.00000000e+00
  0.00000000e+00  0.00000000e+00  0.00000000e+00  0.00000000e+00
  2.10320000e+01  2.48127817e+01  1.53300000e+04  2.29900000e+03
  5.22400000e+02  1.47300000e+02  4.75500000e+01  1.67600000e+01
  6.20700000e+00  1.75200000e+00  6.88200000e-01  2.38400000e-01
  1.76821499e+00  3.29572524e+00  5.58845801e+00  8.45839150e+00
  1.05536030e+01  9.06413748e+00  3.47989863e+00  1.64390941e-01
 -1.55658001e-02  2.05236134e-03 -4.00285362e-01 -7.50745117e-01
 -1.27985584e+00 -2.00016556e+00 -2.67460246e+00 -2.85585187e+00
 -1.74601184e+00  6.19175316e-01  1.15191256e+00  3.26486164e-01
  7.84500000e+00  1.18429456e+01  1.75200000e+00  3.84738459e+00
  2.38400000e-01  8.61975084e-01  7.37600000e-02  3.57586163e-01
  5.74370000e+01  4.61290040e+02  1.51590000e+01  8.72614818e+01
  7.15600000e-01  1.92009319e+00  3.44600000e+01  7.74900000e+00
  2.28000000e+00  7.15600000e-01  2.14000000e-01  3.87962258e+00
  3.76192887e+00  2.53777499e+00  9.42815131e-01  1.42815716e-01
  2.14000000e-01  4.24621137e-01  5.97400000e-02  8.61620286e-02
  1.58580000e+01  3.28824456e+02  2.31400000e+00  1.13283134e+01
  6.45000000e-01  1.21132000e+00  2.14000000e-01  1.75692608e-01
  1.42800000e+00  4.39692268e+00  5.00000000e-01  4.14660695e-01]
ecpbas  = []


******** <class 'pyscf.scf.uhf_symm.SymAdaptedUHF'> ********
method = SymAdaptedUHF
initial guess = atom
damping factor = 0
level_shift factor = 0
DIIS = <class 'pyscf.scf.diis.CDIIS'>
diis_start_cycle = 1
diis_space = 8
diis_damp = 0
SCF conv_tol = 1e-14
SCF conv_tol_grad = None
SCF ddm_tol = 1e-14
SCF max_cycles = 9999
direct_scf = True
direct_scf_tol = 1e-14
chkfile to save SCF result = out.chk
max_memory 4000 MB (current use 90 MB)
number electrons alpha = 5  beta = 2
irrep_nelec {'Ag': 4, 'B3u': 1, 'B2u': 1, 'B1u': 1}
Freeze 7 electrons in irreps ['Ag', 'B3u', 'B2u', 'B1u']
    0 free electrons in irreps B1g B2g B3g Au
cond(S) = 592.9846288913163
Set gradient conv threshold to 1e-07
Spherically averaged atomic HF for {'O'}


******** <class 'pyscf.scf.atom_hf.AtomSphAverageRHF'> ********
method = AtomSphAverageRHF
initial guess = minao
damping factor = 0
level_shift factor = 0
DIIS = <class 'pyscf.scf.diis.CDIIS'>
diis_start_cycle = 1
diis_space = 8
diis_damp = 0
SCF conv_tol = 1e-09
SCF conv_tol_grad = None
SCF ddm_tol = 1e-10
SCF max_cycles = 50
direct_scf = True
direct_scf_tol = 1e-13
chkfile to save SCF result = /tmp/tmpzrnc8j5s
max_memory 4000 MB (current use 90 MB)
atom = O
Set gradient conv threshold to 3.16228e-05
Initial guess from minao.
Nelec from initial guess = 7.999645577852298
E1 = -103.08564136277478  E_coul = 28.803771879068094
init E= -74.2818694837067
l = 0  e_0 = -20.7013869
l = 0  e_1 = -1.26317647
l = 0  e_2 = 0.156151805
l = 0  e_3 = 1.09561719
l = 0  e_4 = 5.12599563
l = 0  e_5 = 27.9523001
l = 0  e_6 = 148.236535
l = 1  e_0 = -0.390334606
l = 1  e_1 = 0.162880429
l = 1  e_2 = 0.915691472
l = 1  e_3 = 3.99524755
l = 1  e_4 = 25.897018
l = 1  e_5 = 138.102977
l = 2  e_0 = 0.641295473
l = 2  e_1 = 2.11192226
l = 2  e_2 = 6.91589745
l = 2  e_3 = 43.7877657
l = 3  e_0 = 2.02343898
l = 3  e_1 = 6.39933653
    CPU time for initialize scf      0.52 sec, wall time      0.31 sec
l = 0  e_0 = -20.7013869
l = 0  e_1 = -1.26317647
l = 0  e_2 = 0.156151805
l = 0  e_3 = 1.09561719
l = 0  e_4 = 5.12599563
l = 0  e_5 = 27.9523001
l = 0  e_6 = 148.236535
l = 1  e_0 = -0.390334606
l = 1  e_1 = 0.162880429
l = 1  e_2 = 0.915691472
l = 1  e_3 = 3.99524755
l = 1  e_4 = 25.897018
l = 1  e_5 = 138.102977
l = 2  e_0 = 0.641295473
l = 2  e_1 = 2.11192226
l = 2  e_2 = 6.91589745
l = 2  e_3 = 43.7877657
l = 3  e_0 = 2.02343898
l = 3  e_1 = 6.39933653
l = 0  occ = 2 + 0
l = 1  occ = 0 + 1.333
l = 2  occ = 0 + 0
l = 3  occ = 0 + 0
E1 = -102.36501171028166  E_coul = 28.07437171362959
cycle= 1 E= -74.2906399966521  delta_E= -0.00877  |g|=    0  |ddm|= 0.148
    CPU time for cycle= 1      0.02 sec, wall time      0.01 sec
diis-norm(errvec)=0.137835
diis-c [-0.0189986  1.       ]
l = 0  e_0 = -20.8797622
l = 0  e_1 = -1.33411451
l = 0  e_2 = 0.150003946
l = 0  e_3 = 1.06542537
l = 0  e_4 = 5.04403284
l = 0  e_5 = 27.8009588
l = 0  e_6 = 148.051321
l = 1  e_0 = -0.447732774
l = 1  e_1 = 0.159636662
l = 1  e_2 = 0.88935001
l = 1  e_3 = 3.91237537
l = 1  e_4 = 25.7375937
l = 1  e_5 = 137.91533
l = 2  e_0 = 0.631709556
l = 2  e_1 = 2.07390693
l = 2  e_2 = 6.82648025
l = 2  e_3 = 43.6211211
l = 3  e_0 = 2.00640443
l = 3  e_1 = 6.33872015
l = 0  occ = 2 + 0
l = 1  occ = 0 + 1.333
l = 2  occ = 0 + 0
l = 3  occ = 0 + 0
E1 = -102.74175688767596  E_coul = 28.449817438810893
cycle= 2 E= -74.2919394488651  delta_E= -0.0013  |g|=    0  |ddm|= 0.065
    CPU time for cycle= 2      0.04 sec, wall time      0.02 sec
diis-norm(errvec)=0.0599662
diis-c [-3.06929537e-04  2.95515653e-01  7.04484347e-01]
l = 0  e_0 = -20.8137564
l = 0  e_1 = -1.31128506
l = 0  e_2 = 0.152010353
l = 0  e_3 = 1.07498096
l = 0  e_4 = 5.07274457
l = 0  e_5 = 27.8565549
l = 0  e_6 = 148.119986
l = 1  e_0 = -0.425904026
l = 1  e_1 = 0.160974502
l = 1  e_2 = 0.899396795
l = 1  e_3 = 3.94322655
l = 1  e_4 = 25.7963435
l = 1  e_5 = 137.984766
l = 2  e_0 = 0.635151756
l = 2  e_1 = 2.08773076
l = 2  e_2 = 6.85936681
l = 2  e_3 = 43.6829532
l = 3  e_0 = 2.0124609
l = 3  e_1 = 6.3606902
l = 0  occ = 2 + 0
l = 1  occ = 0 + 1.333
l = 2  occ = 0 + 0
l = 3  occ = 0 + 0
E1 = -102.60753353288979  E_coul = 28.31519582474513
cycle= 3 E= -74.2923377081447  delta_E= -0.000398  |g|=    0  |ddm|= 0.0269
    CPU time for cycle= 3      0.02 sec, wall time      0.01 sec
diis-norm(errvec)=0.00671987
diis-c [-7.69710192e-07 -1.01683703e-01 -1.17555732e-01  1.21923944e+00]
l = 0  e_0 = -20.8171434
l = 0  e_1 = -1.31344527
l = 0  e_2 = 0.151811039
l = 0  e_3 = 1.07408766
l = 0  e_4 = 5.07086922
l = 0  e_5 = 27.853512
l = 0  e_6 = 148.116887
l = 1  e_0 = -0.426811671
l = 1  e_1 = 0.160932576
l = 1  e_2 = 0.898960093
l = 1  e_3 = 3.9417426
l = 1  e_4 = 25.793244
l = 1  e_5 = 137.981474
l = 2  e_0 = 0.63494843
l = 2  e_1 = 2.08700954
l = 2  e_2 = 6.85767183
l = 2  e_3 = 43.6796759
l = 3  e_0 = 2.0121122
l = 3  e_1 = 6.35953424
l = 0  occ = 2 + 0
l = 1  occ = 0 + 1.333
l = 2  occ = 0 + 0
l = 3  occ = 0 + 0
E1 = -102.61554213519807  E_coul = 28.323200033981706
cycle= 4 E= -74.2923421012164  delta_E= -4.39e-06  |g|=    0  |ddm|= 0.00613
    CPU time for cycle= 4      0.03 sec, wall time      0.01 sec
diis-norm(errvec)=0.000176746
diis-c [-4.64011101e-09  4.21903692e-03  5.56247573e-03 -7.05628349e-02
  1.06078132e+00]
l = 0  e_0 = -20.8172436
l = 0  e_1 = -1.31351182
l = 0  e_2 = 0.151790743
l = 0  e_3 = 1.07404265
l = 0  e_4 = 5.0707935
l = 0  e_5 = 27.8534136
l = 0  e_6 = 148.116803
l = 1  e_0 = -0.426853641
l = 1  e_1 = 0.160924342
l = 1  e_2 = 0.898923147
l = 1  e_3 = 3.94167386
l = 1  e_4 = 25.7931469
l = 1  e_5 = 137.981384
l = 2  e_0 = 0.634925589
l = 2  e_1 = 2.08696386
l = 2  e_2 = 6.85759629
l = 2  e_3 = 43.6795724
l = 3  e_0 = 2.01207707
l = 3  e_1 = 6.35947096
l = 0  occ = 2 + 0
l = 1  occ = 0 + 1.333
l = 2  occ = 0 + 0
l = 3  occ = 0 + 0
E1 = -102.61575658078348  E_coul = 28.323414474813784
cycle= 5 E= -74.2923421059697  delta_E= -4.75e-09  |g|=    0  |ddm|= 0.000243
    CPU time for cycle= 5      0.02 sec, wall time      0.01 sec
diis-norm(errvec)=1.13033e-05
diis-c [-1.40151483e-11 -1.21950169e-04 -2.98223114e-04  4.49908516e-03
 -1.68368930e-01  1.16429002e+00]
l = 0  e_0 = -20.8172435
l = 0  e_1 = -1.31351439
l = 0  e_2 = 0.151789016
l = 0  e_3 = 1.07404104
l = 0  e_4 = 5.07079225
l = 0  e_5 = 27.8534136
l = 0  e_6 = 148.116802
l = 1  e_0 = -0.426855006
l = 1  e_1 = 0.160923806
l = 1  e_2 = 0.898921282
l = 1  e_3 = 3.94167258
l = 1  e_4 = 25.7931469
l = 1  e_5 = 137.981384
l = 2  e_0 = 0.634923422
l = 2  e_1 = 2.08696174
l = 2  e_2 = 6.85759518
l = 2  e_3 = 43.6795727
l = 3  e_0 = 2.01207415
l = 3  e_1 = 6.35946892
l = 0  occ = 2 + 0
l = 1  occ = 0 + 1.333
l = 2  occ = 0 + 0
l = 3  occ = 0 + 0
E1 = -102.61573793328265  E_coul = 28.32339582725029
cycle= 6 E= -74.2923421060324  delta_E= -6.27e-11  |g|=    0  |ddm|= 2.14e-05
    CPU time for cycle= 6      0.03 sec, wall time      0.01 sec
diis-norm(errvec)=1.79631e-06
diis-c [-1.67079383e-13 -1.62261180e-05  1.01369297e-05 -1.12018195e-05
  6.13111925e-03 -8.02536903e-02  1.07413986e+00]
l = 0  e_0 = -20.817245
l = 0  e_1 = -1.31351529
l = 0  e_2 = 0.151788849
l = 0  e_3 = 1.07404056
l = 0  e_4 = 5.07079123
l = 0  e_5 = 27.8534122
l = 0  e_6 = 148.116801
l = 1  e_0 = -0.426855765
l = 1  e_1 = 0.160923735
l = 1  e_2 = 0.898920834
l = 1  e_3 = 3.94167157
l = 1  e_4 = 25.7931455
l = 1  e_5 = 137.981382
l = 2  e_0 = 0.63492316
l = 2  e_1 = 2.08696111
l = 2  e_2 = 6.85759405
l = 2  e_3 = 43.6795712
l = 3  e_0 = 2.01207373
l = 3  e_1 = 6.35946799
l = 0  occ = 2 + 0
l = 1  occ = 0 + 1.333
l = 2  occ = 0 + 0
l = 3  occ = 0 + 0
E1 = -102.61574056461579  E_coul = 28.323398458583032
cycle= 7 E= -74.2923421060328  delta_E= -4.12e-13  |g|=    0  |ddm|= 1.16e-06
    CPU time for cycle= 7      0.02 sec, wall time      0.01 sec
diis-norm(errvec)=4.74642e-08
diis-c [-3.14863951e-16  2.30592272e-06  1.09369743e-06 -2.25021928e-05
  2.99421041e-04  1.90269875e-03 -1.02891355e-01  1.10070834e+00]
l = 0  e_0 = -20.817245
l = 0  e_1 = -1.3135153
l = 0  e_2 = 0.151788846
l = 0  e_3 = 1.07404055
l = 0  e_4 = 5.07079122
l = 0  e_5 = 27.8534122
l = 0  e_6 = 148.116801
l = 1  e_0 = -0.426855777
l = 1  e_1 = 0.160923733
l = 1  e_2 = 0.898920826
l = 1  e_3 = 3.94167156
l = 1  e_4 = 25.7931454
l = 1  e_5 = 137.981382
l = 2  e_0 = 0.634923155
l = 2  e_1 = 2.0869611
l = 2  e_2 = 6.85759404
l = 2  e_3 = 43.6795712
l = 3  e_0 = 2.01207372
l = 3  e_1 = 6.35946797
l = 0  occ = 2 + 0
l = 1  occ = 0 + 1.333
l = 2  occ = 0 + 0
l = 3  occ = 0 + 0
E1 = -102.61574057048081  E_coul = 28.323398464448196
cycle= 8 E= -74.2923421060326  delta_E= 1.56e-13  |g|=    0  |ddm|= 3.68e-08
    CPU time for cycle= 8      0.03 sec, wall time      0.01 sec
diis-norm(errvec)=3.39369e-09
Linear dependence found in DIIS error vectors.
diis-c [ 7.77091914e-18  1.08922443e-06  5.33893773e-07 -1.08343352e-05
  1.52632152e-04  8.11231374e-04 -4.73032747e-02  4.95747033e-01
  5.50601590e-01]
l = 0  e_0 = -20.817245
l = 0  e_1 = -1.3135153
l = 0  e_2 = 0.151788846
l = 0  e_3 = 1.07404055
l = 0  e_4 = 5.07079122
l = 0  e_5 = 27.8534122
l = 0  e_6 = 148.116801
l = 1  e_0 = -0.426855776
l = 1  e_1 = 0.160923733
l = 1  e_2 = 0.898920826
l = 1  e_3 = 3.94167156
l = 1  e_4 = 25.7931454
l = 1  e_5 = 137.981382
l = 2  e_0 = 0.634923155
l = 2  e_1 = 2.0869611
l = 2  e_2 = 6.85759404
l = 2  e_3 = 43.6795712
l = 3  e_0 = 2.01207372
l = 3  e_1 = 6.35946797
l = 0  occ = 2 + 0
l = 1  occ = 0 + 1.333
l = 2  occ = 0 + 0
l = 3  occ = 0 + 0
E1 = -102.61574056794134  E_coul = 28.323398461908653
cycle= 9 E= -74.2923421060327  delta_E= -8.53e-14  |g|=    0  |ddm|= 9.2e-10
    CPU time for cycle= 9      0.03 sec, wall time      0.01 sec
diis-norm(errvec)=1.69034e-09
Linear dependence found in DIIS error vectors.
diis-c [-9.22139253e-16  3.53314481e-01 -4.73854384e-07  2.34485162e-06
  2.82790298e-05  6.55067825e-04 -2.74412531e-02  3.20315638e-01
  3.53125917e-01]
l = 0  e_0 = -20.817245
l = 0  e_1 = -1.3135153
l = 0  e_2 = 0.151788846
l = 0  e_3 = 1.07404055
l = 0  e_4 = 5.07079122
l = 0  e_5 = 27.8534122
l = 0  e_6 = 148.116801
l = 1  e_0 = -0.426855776
l = 1  e_1 = 0.160923734
l = 1  e_2 = 0.898920826
l = 1  e_3 = 3.94167156
l = 1  e_4 = 25.7931454
l = 1  e_5 = 137.981382
l = 2  e_0 = 0.634923155
l = 2  e_1 = 2.0869611
l = 2  e_2 = 6.85759404
l = 2  e_3 = 43.6795712
l = 3  e_0 = 2.01207372
l = 3  e_1 = 6.35946797
l = 0  occ = 2 + 0
l = 1  occ = 0 + 1.333
l = 2  occ = 0 + 0
l = 3  occ = 0 + 0
E1 = -102.61574056493686  E_coul = 28.323398458904183
cycle= 10 E= -74.2923421060327  delta_E= 1.42e-14  |g|=    0  |ddm|= 8.24e-10
    CPU time for cycle= 10      0.02 sec, wall time      0.01 sec
diis-norm(errvec)=8.05244e-10
Linear dependence found in DIIS error vectors.
diis-c [-1.81832780e-16  2.56676445e-01  2.56563071e-01 -1.65318740e-06
  1.71815194e-04 -8.13070953e-04 -1.14499725e-02  2.42259425e-01
  2.56593941e-01]
l = 0  e_0 = -20.817245
l = 0  e_1 = -1.3135153
l = 0  e_2 = 0.151788846
l = 0  e_3 = 1.07404055
l = 0  e_4 = 5.07079122
l = 0  e_5 = 27.8534122
l = 0  e_6 = 148.116801
l = 1  e_0 = -0.426855776
l = 1  e_1 = 0.160923734
l = 1  e_2 = 0.898920826
l = 1  e_3 = 3.94167156
l = 1  e_4 = 25.7931454
l = 1  e_5 = 137.981382
l = 2  e_0 = 0.634923155
l = 2  e_1 = 2.0869611
l = 2  e_2 = 6.85759404
l = 2  e_3 = 43.6795712
l = 3  e_0 = 2.01207372
l = 3  e_1 = 6.35946797
l = 0  occ = 2 + 0
l = 1  occ = 0 + 1.333
l = 2  occ = 0 + 0
l = 3  occ = 0 + 0
E1 = -102.61574056598218  E_coul = 28.323398459949566
cycle= 11 E= -74.2923421060326  delta_E= 7.11e-14  |g|=    0  |ddm|= 2.81e-10
    CPU time for cycle= 11      0.03 sec, wall time      0.01 sec
diis-norm(errvec)=8.53971e-10
Linear dependence found in DIIS error vectors.
diis-c [-7.89656193e-16  2.03910235e-01  2.03804268e-01  2.03845511e-01
  8.43875117e-05 -3.48133369e-04 -8.95455856e-03  1.93780656e-01
  2.03877635e-01]
l = 0  e_0 = -20.817245
l = 0  e_1 = -1.3135153
l = 0  e_2 = 0.151788846
l = 0  e_3 = 1.07404055
l = 0  e_4 = 5.07079122
l = 0  e_5 = 27.8534122
l = 0  e_6 = 148.116801
l = 1  e_0 = -0.426855776
l = 1  e_1 = 0.160923734
l = 1  e_2 = 0.898920826
l = 1  e_3 = 3.94167156
l = 1  e_4 = 25.7931454
l = 1  e_5 = 137.981382
l = 2  e_0 = 0.634923155
l = 2  e_1 = 2.0869611
l = 2  e_2 = 6.85759404
l = 2  e_3 = 43.6795712
l = 3  e_0 = 2.01207372
l = 3  e_1 = 6.35946797
l = 0  occ = 2 + 0
l = 1  occ = 0 + 1.333
l = 2  occ = 0 + 0
l = 3  occ = 0 + 0
E1 = -102.61574056391419  E_coul = 28.32339845788143
cycle= 12 E= -74.2923421060327  delta_E= -1.42e-13  |g|=    0  |ddm|= 8e-10
    CPU time for cycle= 12      0.02 sec, wall time      0.01 sec
diis-norm(errvec)=1.24287e-09
Linear dependence found in DIIS error vectors.
diis-c [-9.43666519e-16  1.67394169e-01  1.67244428e-01  1.67291970e-01
  1.67180309e-01  2.20339999e-05 -1.85436690e-03  1.65208231e-01
  1.67513226e-01]
l = 0  e_0 = -20.817245
l = 0  e_1 = -1.3135153
l = 0  e_2 = 0.151788846
l = 0  e_3 = 1.07404055
l = 0  e_4 = 5.07079122
l = 0  e_5 = 27.8534122
l = 0  e_6 = 148.116801
l = 1  e_0 = -0.426855775
l = 1  e_1 = 0.160923734
l = 1  e_2 = 0.898920827
l = 1  e_3 = 3.94167156
l = 1  e_4 = 25.7931454
l = 1  e_5 = 137.981382
l = 2  e_0 = 0.634923156
l = 2  e_1 = 2.0869611
l = 2  e_2 = 6.85759404
l = 2  e_3 = 43.6795712
l = 3  e_0 = 2.01207372
l = 3  e_1 = 6.35946797
l = 0  occ = 2 + 0
l = 1  occ = 0 + 1.333
l = 2  occ = 0 + 0
l = 3  occ = 0 + 0
E1 = -102.61574056334544  E_coul = 28.323398457312774
cycle= 13 E= -74.2923421060327  delta_E= 8.53e-14  |g|=    0  |ddm|= 1.05e-09
    CPU time for cycle= 13      0.03 sec, wall time      0.01 sec
diis-norm(errvec)=1.7551e-09
Linear dependence found in DIIS error vectors.
diis-c [-1.08646232e-16  1.43423870e-01  1.43294359e-01  1.43335347e-01
  1.43238391e-01  1.43217371e-01 -1.57818516e-03  1.41542791e-01
  1.43526056e-01]
l = 0  e_0 = -20.817245
l = 0  e_1 = -1.3135153
l = 0  e_2 = 0.151788846
l = 0  e_3 = 1.07404055
l = 0  e_4 = 5.07079122
l = 0  e_5 = 27.8534122
l = 0  e_6 = 148.116801
l = 1  e_0 = -0.426855775
l = 1  e_1 = 0.160923734
l = 1  e_2 = 0.898920827
l = 1  e_3 = 3.94167156
l = 1  e_4 = 25.7931454
l = 1  e_5 = 137.981382
l = 2  e_0 = 0.634923156
l = 2  e_1 = 2.0869611
l = 2  e_2 = 6.85759404
l = 2  e_3 = 43.6795712
l = 3  e_0 = 2.01207372
l = 3  e_1 = 6.35946797
l = 0  occ = 2 + 0
l = 1  occ = 0 + 1.333
l = 2  occ = 0 + 0
l = 3  occ = 0 + 0
E1 = -102.61574056390822  E_coul = 28.323398457875648
cycle= 14 E= -74.2923421060326  delta_E= 8.53e-14  |g|=    0  |ddm|= 1.46e-10
    CPU time for cycle= 14      0.02 sec, wall time      0.01 sec
diis-norm(errvec)=1.4369e-09
Linear dependence found in DIIS error vectors.
diis-c [-4.1157153e-16  1.2500000e-01  1.2500000e-01  1.2500000e-01
  1.2500000e-01  1.2500000e-01  1.2500000e-01  1.2500000e-01
  1.2500000e-01]
l = 0  e_0 = -20.817245
l = 0  e_1 = -1.3135153
l = 0  e_2 = 0.151788846
l = 0  e_3 = 1.07404055
l = 0  e_4 = 5.07079122
l = 0  e_5 = 27.8534122
l = 0  e_6 = 148.116801
l = 1  e_0 = -0.426855776
l = 1  e_1 = 0.160923734
l = 1  e_2 = 0.898920826
l = 1  e_3 = 3.94167156
l = 1  e_4 = 25.7931454
l = 1  e_5 = 137.981382
l = 2  e_0 = 0.634923155
l = 2  e_1 = 2.0869611
l = 2  e_2 = 6.85759404
l = 2  e_3 = 43.6795712
l = 3  e_0 = 2.01207372
l = 3  e_1 = 6.35946797
l = 0  occ = 2 + 0
l = 1  occ = 0 + 1.333
l = 2  occ = 0 + 0
l = 3  occ = 0 + 0
E1 = -102.61574056645419  E_coul = 28.323398460421483
cycle= 15 E= -74.2923421060327  delta_E= -1.28e-13  |g|=    0  |ddm|= 5.01e-10
    CPU time for cycle= 15      0.03 sec, wall time      0.01 sec
diis-norm(errvec)=1.11979e-09
Linear dependence found in DIIS error vectors.
diis-c [-2.89052492e-16  1.25000000e-01  1.25000000e-01  1.25000000e-01
  1.25000000e-01  1.25000000e-01  1.25000000e-01  1.25000000e-01
  1.25000000e-01]
l = 0  e_0 = -20.817245
l = 0  e_1 = -1.3135153
l = 0  e_2 = 0.151788846
l = 0  e_3 = 1.07404055
l = 0  e_4 = 5.07079122
l = 0  e_5 = 27.8534122
l = 0  e_6 = 148.116801
l = 1  e_0 = -0.426855776
l = 1  e_1 = 0.160923734
l = 1  e_2 = 0.898920826
l = 1  e_3 = 3.94167156
l = 1  e_4 = 25.7931454
l = 1  e_5 = 137.981382
l = 2  e_0 = 0.634923155
l = 2  e_1 = 2.0869611
l = 2  e_2 = 6.85759404
l = 2  e_3 = 43.6795712
l = 3  e_0 = 2.01207372
l = 3  e_1 = 6.35946797
l = 0  occ = 2 + 0
l = 1  occ = 0 + 1.333
l = 2  occ = 0 + 0
l = 3  occ = 0 + 0
E1 = -102.61574056528826  E_coul = 28.323398459255635
cycle= 16 E= -74.2923421060326  delta_E= 7.11e-14  |g|=    0  |ddm|= 7.94e-10
    CPU time for cycle= 16      0.02 sec, wall time      0.01 sec
diis-norm(errvec)=2.064e-10
Linear dependence found in DIIS error vectors.
diis-c [-2.89052492e-16  1.25000000e-01  1.25000000e-01  1.25000000e-01
  1.25000000e-01  1.25000000e-01  1.25000000e-01  1.25000000e-01
  1.25000000e-01]
l = 0  e_0 = -20.817245
l = 0  e_1 = -1.3135153
l = 0  e_2 = 0.151788846
l = 0  e_3 = 1.07404055
l = 0  e_4 = 5.07079122
l = 0  e_5 = 27.8534122
l = 0  e_6 = 148.116801
l = 1  e_0 = -0.426855776
l = 1  e_1 = 0.160923734
l = 1  e_2 = 0.898920826
l = 1  e_3 = 3.94167156
l = 1  e_4 = 25.7931454
l = 1  e_5 = 137.981382
l = 2  e_0 = 0.634923155
l = 2  e_1 = 2.0869611
l = 2  e_2 = 6.85759404
l = 2  e_3 = 43.6795712
l = 3  e_0 = 2.01207372
l = 3  e_1 = 6.35946797
l = 0  occ = 2 + 0
l = 1  occ = 0 + 1.333
l = 2  occ = 0 + 0
l = 3  occ = 0 + 0
E1 = -102.6157405656405  E_coul = 28.32339845960787
cycle= 17 E= -74.2923421060326  delta_E= 1.42e-14  |g|=    0  |ddm|= 7.35e-11
    CPU time for cycle= 17      0.02 sec, wall time      0.01 sec
l = 0  e_0 = -20.817245
l = 0  e_1 = -1.3135153
l = 0  e_2 = 0.151788846
l = 0  e_3 = 1.07404055
l = 0  e_4 = 5.07079122
l = 0  e_5 = 27.8534122
l = 0  e_6 = 148.116801
l = 1  e_0 = -0.426855776
l = 1  e_1 = 0.160923734
l = 1  e_2 = 0.898920826
l = 1  e_3 = 3.94167156
l = 1  e_4 = 25.7931454
l = 1  e_5 = 137.981382
l = 2  e_0 = 0.634923155
l = 2  e_1 = 2.0869611
l = 2  e_2 = 6.85759404
l = 2  e_3 = 43.6795712
l = 3  e_0 = 2.01207372
l = 3  e_1 = 6.35946797
l = 0  occ = 2 + 0
l = 1  occ = 0 + 1.333
l = 2  occ = 0 + 0
l = 3  occ = 0 + 0
E1 = -102.61574056538332  E_coul = 28.323398459350575
Extra cycle  E= -74.2923421060327  delta_E= -1.28e-13  |g|=    0  |ddm|= 7.35e-11
    CPU time for scf_cycle      1.00 sec, wall time      0.43 sec
    CPU time for SCF      1.00 sec, wall time      0.43 sec
Atomic HF for atom  O  converged. SCF energy = -74.2923421060327

Atom O, E = -74.292342106
Nelec from initial guess = (np.float64(4.000000000000001), np.float64(4.000000000000001))
E1 = -102.61574056538332  Ecoul = 28.323398459350578
init E= -74.2923421060327
    CPU time for initialize scf      1.18 sec, wall time      0.54 sec
alpha HOMO (B1u) = -0.426855775697573  LUMO (Ag) = 0.151788846292755
alpha irrep_nelec = [2, 0, 0, 0, 0, 1, 1, 1]
beta  irrep_nelec = [2, 0, 0, 0, 0, 0, 0, 0]
alpha-Ag nocc = 2  HOMO = -1.31351530066836  LUMO = 0.151788846292755
   mo_energy = [-20.81724497  -1.3135153    0.15178885   0.63492316   0.63492316
   1.07404055   2.0869611    2.0869611    5.07079122   6.85759404
   6.85759404  27.8534122   43.67957123  43.67957123 148.11680074]
alpha-B1g nocc = 0
   mo_energy = [ 0.63492316  2.0869611   6.85759404 43.67957123]
alpha-B2g nocc = 0
   mo_energy = [ 0.63492316  2.0869611   6.85759404 43.67957123]
alpha-B3g nocc = 0
   mo_energy = [ 0.63492316  2.0869611   6.85759404 43.67957123]
alpha-Au nocc = 0
   mo_energy = [2.01207372 6.35946797]
alpha-B1u nocc = 1  HOMO = -0.426855775697573  LUMO = 0.160923733530455
   mo_energy = [ -0.42685578   0.16092373   0.89892083   2.01207372   2.01207372
   3.94167156   6.35946797   6.35946797  25.79314545 137.98138222]
alpha-B2u nocc = 1  HOMO = -0.426855775697574  LUMO = 0.160923733530454
   mo_energy = [ -0.42685578   0.16092373   0.89892083   2.01207372   2.01207372
   3.94167156   6.35946797   6.35946797  25.79314545 137.98138222]
alpha-B3u nocc = 1  HOMO = -0.42685577569758  LUMO = 0.160923733530456
   mo_energy = [ -0.42685578   0.16092373   0.89892083   2.01207372   2.01207372
   3.94167156   6.35946797   6.35946797  25.79314545 137.98138222]
beta-Ag nocc = 2  HOMO = -1.31351530066836  LUMO = 0.151788846292755
   mo_energy = [-20.81724497  -1.3135153    0.15178885   0.63492316   0.63492316
   1.07404055   2.0869611    2.0869611    5.07079122   6.85759404
   6.85759404  27.8534122   43.67957123  43.67957123 148.11680074]
beta-B1g nocc = 0
   mo_energy = [ 0.63492316  2.0869611   6.85759404 43.67957123]
beta-B2g nocc = 0
   mo_energy = [ 0.63492316  2.0869611   6.85759404 43.67957123]
beta-B3g nocc = 0
   mo_energy = [ 0.63492316  2.0869611   6.85759404 43.67957123]
beta-Au nocc = 0
   mo_energy = [2.01207372 6.35946797]
beta-B1u nocc = 0
   mo_energy = [ -0.42685578   0.16092373   0.89892083   2.01207372   2.01207372
   3.94167156   6.35946797   6.35946797  25.79314545 137.98138222]
beta-B2u nocc = 0
   mo_energy = [ -0.42685578   0.16092373   0.89892083   2.01207372   2.01207372
   3.94167156   6.35946797   6.35946797  25.79314545 137.98138222]
beta-B3u nocc = 0
   mo_energy = [ -0.42685578   0.16092373   0.89892083   2.01207372   2.01207372
   3.94167156   6.35946797   6.35946797  25.79314545 137.98138222]
multiplicity <S^2> = 3.75  2S+1 = 4
E1 = -96.45404591753584  Ecoul = 22.24562479414096
cycle= 1 E= -74.2084211233949  delta_E= 0.0839  |g|= 0.546  |ddm|= 0.602
    CPU time for cycle= 1      0.12 sec, wall time      0.05 sec
diis-norm(errvec)=0.77153
diis-c [-0.59525884  1.        ]
alpha HOMO (B2u) = -1.46897698795399  LUMO (Ag) = -0.155516593403788
alpha irrep_nelec = [2, 0, 0, 0, 0, 1, 1, 1]
beta  irrep_nelec = [2, 0, 0, 0, 0, 0, 0, 0]
alpha-Ag nocc = 2  HOMO = -2.2355384206334  LUMO = -0.155516593403788
   mo_energy = [-21.90281472  -2.23553842  -0.15551659   0.23963559   0.23963559
   0.57263143   1.45289178   1.45289178   4.28450929   5.98907462
   5.98907462  26.85559794  42.63009457  42.63009457 147.07069297]
alpha-B1g nocc = 0
   mo_energy = [ 0.23963559  1.45289178  5.98907462 42.63009457]
alpha-B2g nocc = 0
   mo_energy = [ 0.23963559  1.45289178  5.98907462 42.63009457]
alpha-B3g nocc = 0
   mo_energy = [ 0.23963559  1.45289178  5.98907462 42.63009457]
alpha-Au nocc = 0
   mo_energy = [1.52469497 5.62183919]
alpha-B1u nocc = 1  HOMO = -1.46897698795399  LUMO = -0.0907571320826328
   mo_energy = [-1.46897699e+00 -9.07571321e-02  4.07737908e-01  1.52469497e+00
  1.52469497e+00  3.13266192e+00  5.62183919e+00  5.62183919e+00
  2.47679408e+01  1.36923935e+02]
alpha-B2u nocc = 1  HOMO = -1.46897698795399  LUMO = -0.0907571320826326
   mo_energy = [-1.46897699e+00 -9.07571321e-02  4.07737908e-01  1.52469497e+00
  1.52469497e+00  3.13266192e+00  5.62183919e+00  5.62183919e+00
  2.47679408e+01  1.36923935e+02]
alpha-B3u nocc = 1  HOMO = -1.46897698795399  LUMO = -0.0907571320826341
   mo_energy = [-1.46897699e+00 -9.07571321e-02  4.07737908e-01  1.52469497e+00
  1.52469497e+00  3.13266192e+00  5.62183919e+00  5.62183919e+00
  2.47679408e+01  1.36923935e+02]
beta-Ag nocc = 2  HOMO = -1.7705911152951  LUMO = -0.123945957553477
   mo_energy = [-2.18066396e+01 -1.77059112e+00 -1.23945958e-01  2.96235958e-01
  2.96235958e-01  6.48505695e-01  1.60213688e+00  1.60213688e+00
  4.39761883e+00  6.15929218e+00  6.15929218e+00  2.69203540e+01
  4.27013650e+01  4.27013650e+01  1.47087718e+02]
beta-B1g nocc = 0
   mo_energy = [ 0.29623596  1.60213688  6.15929218 42.70136502]
beta-B2g nocc = 0
   mo_energy = [ 0.29623596  1.60213688  6.15929218 42.70136502]
beta-B3g nocc = 0
   mo_energy = [ 0.29623596  1.60213688  6.15929218 42.70136502]
beta-Au nocc = 0
   mo_energy = [1.57223421 5.72414618]
beta-B1u nocc = 0
   mo_energy = [-5.83124420e-01 -6.72497720e-02  5.01424728e-01  1.57223421e+00
  1.57223421e+00  3.28501088e+00  5.72414618e+00  5.72414618e+00
  2.48464569e+01  1.36941979e+02]
beta-B2u nocc = 0
   mo_energy = [-5.83124420e-01 -6.72497720e-02  5.01424728e-01  1.57223421e+00
  1.57223421e+00  3.28501088e+00  5.72414618e+00  5.72414618e+00
  2.48464569e+01  1.36941979e+02]
beta-B3u nocc = 0
   mo_energy = [-5.83124420e-01 -6.72497720e-02  5.01424728e-01  1.57223421e+00
  1.57223421e+00  3.28501088e+00  5.72414618e+00  5.72414618e+00
  2.48464569e+01  1.36941979e+02]
multiplicity <S^2> = 3.750406  2S+1 = 4.000203
E1 = -98.56564646951841  Ecoul = 24.201492957191803
cycle= 2 E= -74.3641535123266  delta_E= -0.156  |g|= 0.149  |ddm|= 0.428
    CPU time for cycle= 2      0.08 sec, wall time      0.02 sec
diis-norm(errvec)=0.210748
diis-c [-0.0354414   0.11237761  0.88762239]
alpha HOMO (B2u) = -1.3333066190228  LUMO (Ag) = -0.131852649217204
alpha irrep_nelec = [2, 0, 0, 0, 0, 1, 1, 1]
beta  irrep_nelec = [2, 0, 0, 0, 0, 0, 0, 0]
alpha-Ag nocc = 2  HOMO = -2.07986265686302  LUMO = -0.131852649217204
   mo_energy = [-2.14324844e+01 -2.07986266e+00 -1.31852649e-01  2.77093854e-01
  2.77093854e-01  6.36925869e-01  1.54866134e+00  1.54866134e+00
  4.47993971e+00  6.20671769e+00  6.20671769e+00  2.72561102e+01
  4.30742504e+01  4.30742504e+01  1.47566578e+02]
alpha-B1g nocc = 0
   mo_energy = [ 0.27709385  1.54866134  6.20671769 43.07425042]
alpha-B2g nocc = 0
   mo_energy = [ 0.27709385  1.54866134  6.20671769 43.07425042]
alpha-B3g nocc = 0
   mo_energy = [ 0.27709385  1.54866134  6.20671769 43.07425042]
alpha-Au nocc = 0
   mo_energy = [1.5736116  5.77542849]
alpha-B1u nocc = 1  HOMO = -1.3333066190228  LUMO = -0.0788826264555712
   mo_energy = [-1.33330662e+00 -7.88826265e-02  4.61289402e-01  1.57361160e+00
  1.57361160e+00  3.32920149e+00  5.77542849e+00  5.77542849e+00
  2.51876404e+01  1.37426839e+02]
alpha-B2u nocc = 1  HOMO = -1.3333066190228  LUMO = -0.0788826264555712
   mo_energy = [-1.33330662e+00 -7.88826265e-02  4.61289402e-01  1.57361160e+00
  1.57361160e+00  3.32920149e+00  5.77542849e+00  5.77542849e+00
  2.51876404e+01  1.37426839e+02]
alpha-B3u nocc = 1  HOMO = -1.3333066190228  LUMO = -0.078882626455572
   mo_energy = [-1.33330662e+00 -7.88826265e-02  4.61289402e-01  1.57361160e+00
  1.57361160e+00  3.32920149e+00  5.77542849e+00  5.77542849e+00
  2.51876404e+01  1.37426839e+02]
beta-Ag nocc = 2  HOMO = -1.56742985973723  LUMO = -0.1113588226477
   mo_energy = [-2.13074073e+01 -1.56742986e+00 -1.11358823e-01  3.13128595e-01
  3.13128595e-01  7.15405589e-01  1.70256227e+00  1.70256227e+00
  4.62022532e+00  6.42078591e+00  6.42078591e+00  2.73395908e+01
  4.31689257e+01  4.31689257e+01  1.47587692e+02]
beta-B1g nocc = 0
   mo_energy = [ 0.31312859  1.70256227  6.42078591 43.16892568]
beta-B2g nocc = 0
   mo_energy = [ 0.31312859  1.70256227  6.42078591 43.16892568]
beta-B3g nocc = 0
   mo_energy = [ 0.31312859  1.70256227  6.42078591 43.16892568]
beta-Au nocc = 0
   mo_energy = [1.60889293 5.88894575]
beta-B1u nocc = 0
   mo_energy = [-3.99223468e-01 -4.96567963e-02  5.87600304e-01  1.60889293e+00
  1.60889293e+00  3.52854311e+00  5.88894575e+00  5.88894575e+00
  2.52906679e+01  1.37449899e+02]
beta-B2u nocc = 0
   mo_energy = [-3.99223468e-01 -4.96567963e-02  5.87600304e-01  1.60889293e+00
  1.60889293e+00  3.52854311e+00  5.88894575e+00  5.88894575e+00
  2.52906679e+01  1.37449899e+02]
beta-B3u nocc = 0
   mo_energy = [-3.99223468e-01 -4.96567963e-02  5.87600304e-01  1.60889293e+00
  1.60889293e+00  3.52854311e+00  5.88894575e+00  5.88894575e+00
  2.52906679e+01  1.37449899e+02]
multiplicity <S^2> = 3.7526606  2S+1 = 4.0013301
E1 = -98.43229776511055  Ecoul = 24.06219037460721
cycle= 3 E= -74.3701073905033  delta_E= -0.00595  |g|= 0.0344  |ddm|= 0.0664
    CPU time for cycle= 3      0.09 sec, wall time      0.02 sec
diis-norm(errvec)=0.0486166
diis-c [-9.52377940e-04 -3.44601367e-02 -2.17156560e-01  1.25161670e+00]
alpha HOMO (B2u) = -1.32787959415646  LUMO (Ag) = -0.127751528194578
alpha irrep_nelec = [2, 0, 0, 0, 0, 1, 1, 1]
beta  irrep_nelec = [2, 0, 0, 0, 0, 0, 0, 0]
alpha-Ag nocc = 2  HOMO = -2.06984754679946  LUMO = -0.127751528194578
   mo_energy = [-2.14092780e+01 -2.06984755e+00 -1.27751528e-01  2.84295277e-01
  2.84295277e-01  6.45506743e-01  1.55924696e+00  1.55924696e+00
  4.49733899e+00  6.22458407e+00  6.22458407e+00  2.72807792e+01
  4.31006686e+01  4.31006686e+01  1.47584612e+02]
alpha-B1g nocc = 0
   mo_energy = [ 0.28429528  1.55924696  6.22458407 43.10066865]
alpha-B2g nocc = 0
   mo_energy = [ 0.28429528  1.55924696  6.22458407 43.10066865]
alpha-B3g nocc = 0
   mo_energy = [ 0.28429528  1.55924696  6.22458407 43.10066865]
alpha-Au nocc = 0
   mo_energy = [1.58254826 5.79220489]
alpha-B1u nocc = 1  HOMO = -1.32787959415647  LUMO = -0.0772770771392914
   mo_energy = [-1.32787959e+00 -7.72770771e-02  4.67469240e-01  1.58254826e+00
  1.58254826e+00  3.34522997e+00  5.79220489e+00  5.79220489e+00
  2.52118692e+01  1.37446865e+02]
alpha-B2u nocc = 1  HOMO = -1.32787959415646  LUMO = -0.0772770771392896
   mo_energy = [-1.32787959e+00 -7.72770771e-02  4.67469240e-01  1.58254826e+00
  1.58254826e+00  3.34522997e+00  5.79220489e+00  5.79220489e+00
  2.52118692e+01  1.37446865e+02]
alpha-B3u nocc = 1  HOMO = -1.32787959415646  LUMO = -0.0772770771392912
   mo_energy = [-1.32787959e+00 -7.72770771e-02  4.67469240e-01  1.58254826e+00
  1.58254826e+00  3.34522997e+00  5.79220489e+00  5.79220489e+00
  2.52118692e+01  1.37446865e+02]
beta-Ag nocc = 2  HOMO = -1.53426012549762  LUMO = -0.108641247657383
   mo_energy = [-2.12797875e+01 -1.53426013e+00 -1.08641248e-01  3.15232047e-01
  3.15232047e-01  7.28347521e-01  1.71576426e+00  1.71576426e+00
  4.64779917e+00  6.44874341e+00  6.44874341e+00  2.73693653e+01
  4.31977327e+01  4.31977327e+01  1.47607679e+02]
beta-B1g nocc = 0
   mo_energy = [ 0.31523205  1.71576426  6.44874341 43.19773274]
beta-B2g nocc = 0
   mo_energy = [ 0.31523205  1.71576426  6.44874341 43.19773274]
beta-B3g nocc = 0
   mo_energy = [ 0.31523205  1.71576426  6.44874341 43.19773274]
beta-Au nocc = 0
   mo_energy = [1.61457176 5.90980166]
beta-B1u nocc = 0
   mo_energy = [-3.81458689e-01 -4.68645103e-02  5.98970041e-01  1.61457176e+00
  1.61457176e+00  3.55059933e+00  5.90980166e+00  5.90980166e+00
  2.53186042e+01  1.37471490e+02]
beta-B2u nocc = 0
   mo_energy = [-3.81458689e-01 -4.68645103e-02  5.98970041e-01  1.61457176e+00
  1.61457176e+00  3.55059933e+00  5.90980166e+00  5.90980166e+00
  2.53186042e+01  1.37471490e+02]
beta-B3u nocc = 0
   mo_energy = [-3.81458689e-01 -4.68645103e-02  5.98970041e-01  1.61457176e+00
  1.61457176e+00  3.55059933e+00  5.90980166e+00  5.90980166e+00
  2.53186042e+01  1.37471490e+02]
multiplicity <S^2> = 3.754851  2S+1 = 4.0024248
E1 = -98.44983162435005  Ecoul = 24.078917325029693
cycle= 4 E= -74.3709142993204  delta_E= -0.000807  |g|= 0.00671  |ddm|= 0.0522
    CPU time for cycle= 4      0.09 sec, wall time      0.02 sec
diis-norm(errvec)=0.00949378
diis-c [-2.48341794e-05  2.20157456e-03  4.29725981e-02 -3.33842281e-01
  1.28866811e+00]
alpha HOMO (B3u) = -1.32989554843496  LUMO (Ag) = -0.128014082143644
alpha irrep_nelec = [2, 0, 0, 0, 0, 1, 1, 1]
beta  irrep_nelec = [2, 0, 0, 0, 0, 0, 0, 0]
alpha-Ag nocc = 2  HOMO = -2.07204548027346  LUMO = -0.128014082143644
   mo_energy = [-2.14119917e+01 -2.07204548e+00 -1.28014082e-01  2.84282013e-01
  2.84282013e-01  6.44762531e-01  1.55841763e+00  1.55841763e+00
  4.49526049e+00  6.22203685e+00  6.22203685e+00  2.72785256e+01
  4.30989608e+01  4.30989608e+01  1.47582821e+02]
alpha-B1g nocc = 0
   mo_energy = [ 0.28428201  1.55841763  6.22203685 43.09896084]
alpha-B2g nocc = 0
   mo_energy = [ 0.28428201  1.55841763  6.22203685 43.09896084]
alpha-B3g nocc = 0
   mo_energy = [ 0.28428201  1.55841763  6.22203685 43.09896084]
alpha-Au nocc = 0
   mo_energy = [1.58229621 5.7905682 ]
alpha-B1u nocc = 1  HOMO = -1.32989554843497  LUMO = -0.0775816316604241
   mo_energy = [-1.32989555e+00 -7.75816317e-02  4.66511116e-01  1.58229621e+00
  1.58229621e+00  3.34318179e+00  5.79056820e+00  5.79056820e+00
  2.52100123e+01  1.37445325e+02]
alpha-B2u nocc = 1  HOMO = -1.32989554843497  LUMO = -0.0775816316604233
   mo_energy = [-1.32989555e+00 -7.75816317e-02  4.66511116e-01  1.58229621e+00
  1.58229621e+00  3.34318179e+00  5.79056820e+00  5.79056820e+00
  2.52100123e+01  1.37445325e+02]
alpha-B3u nocc = 1  HOMO = -1.32989554843496  LUMO = -0.0775816316604245
   mo_energy = [-1.32989555e+00 -7.75816317e-02  4.66511116e-01  1.58229621e+00
  1.58229621e+00  3.34318179e+00  5.79056820e+00  5.79056820e+00
  2.52100123e+01  1.37445325e+02]
beta-Ag nocc = 2  HOMO = -1.5319378622365  LUMO = -0.108478136882655
   mo_energy = [-2.12795521e+01 -1.53193786e+00 -1.08478137e-01  3.14699660e-01
  3.14699660e-01  7.28810159e-01  1.71461453e+00  1.71461453e+00
  4.64791426e+00  6.44776598e+00  6.44776598e+00  2.73689967e+01
  4.31966350e+01  4.31966350e+01  1.47607283e+02]
beta-B1g nocc = 0
   mo_energy = [ 0.31469966  1.71461453  6.44776598 43.19663504]
beta-B2g nocc = 0
   mo_energy = [ 0.31469966  1.71461453  6.44776598 43.19663504]
beta-B3g nocc = 0
   mo_energy = [ 0.31469966  1.71461453  6.44776598 43.19663504]
beta-Au nocc = 0
   mo_energy = [1.61376231 5.90844071]
beta-B1u nocc = 0
   mo_energy = [-3.82532219e-01 -4.68683450e-02  5.98759350e-01  1.61376231e+00
  1.61376231e+00  3.54953061e+00  5.90844071e+00  5.90844071e+00
  2.53178504e+01  1.37471002e+02]
beta-B2u nocc = 0
   mo_energy = [-3.82532219e-01 -4.68683450e-02  5.98759350e-01  1.61376231e+00
  1.61376231e+00  3.54953061e+00  5.90844071e+00  5.90844071e+00
  2.53178504e+01  1.37471002e+02]
beta-B3u nocc = 0
   mo_energy = [-3.82532219e-01 -4.68683450e-02  5.98759350e-01  1.61376231e+00
  1.61376231e+00  3.54953061e+00  5.90844071e+00  5.90844071e+00
  2.53178504e+01  1.37471002e+02]
multiplicity <S^2> = 3.7555001  2S+1 = 4.0027491
E1 = -98.4566520149377  Ecoul = 24.08570881914392
cycle= 5 E= -74.3709431957938  delta_E= -2.89e-05  |g|= 0.000673  |ddm|= 0.0138
    CPU time for cycle= 5      0.09 sec, wall time      0.02 sec
diis-norm(errvec)=0.000951261
diis-c [-8.82125981e-08  2.20540544e-04 -3.90699132e-03  3.69597504e-02
 -2.23434542e-01  1.19016124e+00]
alpha HOMO (B3u) = -1.33004076831103  LUMO (Ag) = -0.128052314674386
alpha irrep_nelec = [2, 0, 0, 0, 0, 1, 1, 1]
beta  irrep_nelec = [2, 0, 0, 0, 0, 0, 0, 0]
alpha-Ag nocc = 2  HOMO = -2.0722547213044  LUMO = -0.128052314674386
   mo_energy = [-2.14120452e+01 -2.07225472e+00 -1.28052315e-01  2.84239305e-01
  2.84239305e-01  6.44670953e-01  1.55838777e+00  1.55838777e+00
  4.49510427e+00  6.22190548e+00  6.22190548e+00  2.72784938e+01
  4.30990657e+01  4.30990657e+01  1.47582739e+02]
alpha-B1g nocc = 0
   mo_energy = [ 0.28423931  1.55838777  6.22190548 43.09906569]
alpha-B2g nocc = 0
   mo_energy = [ 0.28423931  1.55838777  6.22190548 43.09906569]
alpha-B3g nocc = 0
   mo_energy = [ 0.28423931  1.55838777  6.22190548 43.09906569]
alpha-Au nocc = 0
   mo_energy = [1.58224074 5.79046647]
alpha-B1u nocc = 1  HOMO = -1.33004076831103  LUMO = -0.0775838796380718
   mo_energy = [-1.33004077e+00 -7.75838796e-02  4.66461250e-01  1.58224074e+00
  1.58224074e+00  3.34309028e+00  5.79046647e+00  5.79046647e+00
  2.52100534e+01  1.37445311e+02]
alpha-B2u nocc = 1  HOMO = -1.33004076831103  LUMO = -0.0775838796380725
   mo_energy = [-1.33004077e+00 -7.75838796e-02  4.66461250e-01  1.58224074e+00
  1.58224074e+00  3.34309028e+00  5.79046647e+00  5.79046647e+00
  2.52100534e+01  1.37445311e+02]
alpha-B3u nocc = 1  HOMO = -1.33004076831103  LUMO = -0.0775838796380723
   mo_energy = [-1.33004077e+00 -7.75838796e-02  4.66461250e-01  1.58224074e+00
  1.58224074e+00  3.34309028e+00  5.79046647e+00  5.79046647e+00
  2.52100534e+01  1.37445311e+02]
beta-Ag nocc = 2  HOMO = -1.53176652982928  LUMO = -0.108463350516367
   mo_energy = [-2.12792490e+01 -1.53176653e+00 -1.08463351e-01  3.14650985e-01
  3.14650985e-01  7.28855006e-01  1.71449763e+00  1.71449763e+00
  4.64801438e+00  6.44777927e+00  6.44777927e+00  2.73692019e+01
  4.31967960e+01  4.31967960e+01  1.47607392e+02]
beta-B1g nocc = 0
   mo_energy = [ 0.31465098  1.71449763  6.44777927 43.19679599]
beta-B2g nocc = 0
   mo_energy = [ 0.31465098  1.71449763  6.44777927 43.19679599]
beta-B3g nocc = 0
   mo_energy = [ 0.31465098  1.71449763  6.44777927 43.19679599]
beta-Au nocc = 0
   mo_energy = [1.61367606 5.90832067]
beta-B1u nocc = 0
   mo_energy = [-3.82595990e-01 -4.68618512e-02  5.98767640e-01  1.61367606e+00
  1.61367606e+00  3.54953912e+00  5.90832067e+00  5.90832067e+00
  2.53179882e+01  1.37471122e+02]
beta-B2u nocc = 0
   mo_energy = [-3.82595990e-01 -4.68618512e-02  5.98767640e-01  1.61367606e+00
  1.61367606e+00  3.54953912e+00  5.90832067e+00  5.90832067e+00
  2.53179882e+01  1.37471122e+02]
beta-B3u nocc = 0
   mo_energy = [-3.82595990e-01 -4.68618512e-02  5.98767640e-01  1.61367606e+00
  1.61367606e+00  3.54953912e+00  5.90832067e+00  5.90832067e+00
  2.53179882e+01  1.37471122e+02]
multiplicity <S^2> = 3.7555544  2S+1 = 4.0027762
E1 = -98.45651926596305  Ecoul = 24.085575873986436
cycle= 6 E= -74.3709433919766  delta_E= -1.96e-07  |g|= 2.96e-05  |ddm|= 0.000793
    CPU time for cycle= 6      0.09 sec, wall time      0.02 sec
diis-norm(errvec)=4.18647e-05
diis-c [-3.77697868e-10 -1.88078294e-05  2.70787759e-04 -2.75928864e-03
  2.11172517e-02 -1.32294953e-01  1.11368501e+00]
alpha HOMO (B3u) = -1.33003493911094  LUMO (Ag) = -0.128052356442633
alpha irrep_nelec = [2, 0, 0, 0, 0, 1, 1, 1]
beta  irrep_nelec = [2, 0, 0, 0, 0, 0, 0, 0]
alpha-Ag nocc = 2  HOMO = -2.07225720992291  LUMO = -0.128052356442633
   mo_energy = [-2.14120315e+01 -2.07225721e+00 -1.28052356e-01  2.84239012e-01
  2.84239012e-01  6.44670740e-01  1.55839321e+00  1.55839321e+00
  4.49510672e+00  6.22191442e+00  6.22191442e+00  2.72785025e+01
  4.30990772e+01  4.30990772e+01  1.47582756e+02]
alpha-B1g nocc = 0
   mo_energy = [ 0.28423901  1.55839321  6.22191442 43.09907721]
alpha-B2g nocc = 0
   mo_energy = [ 0.28423901  1.55839321  6.22191442 43.09907721]
alpha-B3g nocc = 0
   mo_energy = [ 0.28423901  1.55839321  6.22191442 43.09907721]
alpha-Au nocc = 0
   mo_energy = [1.58224209 5.79047409]
alpha-B1u nocc = 1  HOMO = -1.33003493911095  LUMO = -0.0775820918321066
   mo_energy = [-1.33003494e+00 -7.75820918e-02  4.66466202e-01  1.58224209e+00
  1.58224209e+00  3.34309975e+00  5.79047409e+00  5.79047409e+00
  2.52100652e+01  1.37445327e+02]
alpha-B2u nocc = 1  HOMO = -1.33003493911095  LUMO = -0.0775820918321055
   mo_energy = [-1.33003494e+00 -7.75820918e-02  4.66466202e-01  1.58224209e+00
  1.58224209e+00  3.34309975e+00  5.79047409e+00  5.79047409e+00
  2.52100652e+01  1.37445327e+02]
alpha-B3u nocc = 1  HOMO = -1.33003493911094  LUMO = -0.0775820918321061
   mo_energy = [-1.33003494e+00 -7.75820918e-02  4.66466202e-01  1.58224209e+00
  1.58224209e+00  3.34309975e+00  5.79047409e+00  5.79047409e+00
  2.52100652e+01  1.37445327e+02]
beta-Ag nocc = 2  HOMO = -1.5317656998318  LUMO = -0.108463170415338
   mo_energy = [-2.12792365e+01 -1.53176570e+00 -1.08463170e-01  3.14652702e-01
  3.14652702e-01  7.28856647e-01  1.71450120e+00  1.71450120e+00
  4.64802199e+00  6.44778737e+00  6.44778737e+00  2.73692130e+01
  4.31968062e+01  4.31968062e+01  1.47607411e+02]
beta-B1g nocc = 0
   mo_energy = [ 0.3146527   1.7145012   6.44778737 43.19680621]
beta-B2g nocc = 0
   mo_energy = [ 0.3146527   1.7145012   6.44778737 43.19680621]
beta-B3g nocc = 0
   mo_energy = [ 0.3146527   1.7145012   6.44778737 43.19680621]
beta-Au nocc = 0
   mo_energy = [1.61367859 5.90832648]
beta-B1u nocc = 0
   mo_energy = [-3.82590496e-01 -4.68613619e-02  5.98770622e-01  1.61367859e+00
  1.61367859e+00  3.54954601e+00  5.90832648e+00  5.90832648e+00
  2.53179992e+01  1.37471138e+02]
beta-B2u nocc = 0
   mo_energy = [-3.82590496e-01 -4.68613619e-02  5.98770622e-01  1.61367859e+00
  1.61367859e+00  3.54954601e+00  5.90832648e+00  5.90832648e+00
  2.53179992e+01  1.37471138e+02]
beta-B3u nocc = 0
   mo_energy = [-3.82590496e-01 -4.68613619e-02  5.98770622e-01  1.61367859e+00
  1.61367859e+00  3.54954601e+00  5.90832648e+00  5.90832648e+00
  2.53179992e+01  1.37471138e+02]
multiplicity <S^2> = 3.7555539  2S+1 = 4.002776
E1 = -98.4564880359986  Ecoul = 24.085544643563523
cycle= 7 E= -74.3709433924351  delta_E= -4.58e-10  |g|= 2.27e-06  |ddm|= 6.1e-05
    CPU time for cycle= 7      0.09 sec, wall time      0.02 sec
diis-norm(errvec)=3.21495e-06
diis-c [-2.96694948e-12  2.58733183e-07 -2.45439695e-05  2.72099405e-04
 -2.13630097e-03  1.35300062e-02 -1.48847961e-01  1.13720644e+00]
alpha HOMO (B3u) = -1.33003437201796  LUMO (Ag) = -0.128052565007722
alpha irrep_nelec = [2, 0, 0, 0, 0, 1, 1, 1]
beta  irrep_nelec = [2, 0, 0, 0, 0, 0, 0, 0]
alpha-Ag nocc = 2  HOMO = -2.07225800136307  LUMO = -0.128052565007722
   mo_energy = [-2.14120324e+01 -2.07225800e+00 -1.28052565e-01  2.84238952e-01
  2.84238952e-01  6.44670319e-01  1.55839317e+00  1.55839317e+00
  4.49510612e+00  6.22191423e+00  6.22191423e+00  2.72785017e+01
  4.30990767e+01  4.30990767e+01  1.47582756e+02]
alpha-B1g nocc = 0
   mo_energy = [ 0.28423895  1.55839317  6.22191423 43.09907667]
alpha-B2g nocc = 0
   mo_energy = [ 0.28423895  1.55839317  6.22191423 43.09907667]
alpha-B3g nocc = 0
   mo_energy = [ 0.28423895  1.55839317  6.22191423 43.09907667]
alpha-Au nocc = 0
   mo_energy = [1.58224203 5.79047399]
alpha-B1u nocc = 1  HOMO = -1.33003437201797  LUMO = -0.0775822255471863
   mo_energy = [-1.33003437e+00 -7.75822255e-02  4.66466029e-01  1.58224203e+00
  1.58224203e+00  3.34309977e+00  5.79047399e+00  5.79047399e+00
  2.52100647e+01  1.37445326e+02]
alpha-B2u nocc = 1  HOMO = -1.33003437201796  LUMO = -0.0775822255471854
   mo_energy = [-1.33003437e+00 -7.75822255e-02  4.66466029e-01  1.58224203e+00
  1.58224203e+00  3.34309977e+00  5.79047399e+00  5.79047399e+00
  2.52100647e+01  1.37445326e+02]
alpha-B3u nocc = 1  HOMO = -1.33003437201796  LUMO = -0.0775822255471861
   mo_energy = [-1.33003437e+00 -7.75822255e-02  4.66466029e-01  1.58224203e+00
  1.58224203e+00  3.34309977e+00  5.79047399e+00  5.79047399e+00
  2.52100647e+01  1.37445326e+02]
beta-Ag nocc = 2  HOMO = -1.53176623126914  LUMO = -0.108463222337593
   mo_energy = [-2.12792369e+01 -1.53176623e+00 -1.08463222e-01  3.14652703e-01
  3.14652703e-01  7.28856535e-01  1.71450106e+00  1.71450106e+00
  4.64802179e+00  6.44778707e+00  6.44778707e+00  2.73692125e+01
  4.31968054e+01  4.31968054e+01  1.47607411e+02]
beta-B1g nocc = 0
   mo_energy = [ 0.3146527   1.71450106  6.44778707 43.19680544]
beta-B2g nocc = 0
   mo_energy = [ 0.3146527   1.71450106  6.44778707 43.19680544]
beta-B3g nocc = 0
   mo_energy = [ 0.3146527   1.71450106  6.44778707 43.19680544]
beta-Au nocc = 0
   mo_energy = [1.61367854 5.90832633]
beta-B1u nocc = 0
   mo_energy = [-3.82590676e-01 -4.68614190e-02  5.98770476e-01  1.61367854e+00
  1.61367854e+00  3.54954563e+00  5.90832633e+00  5.90832633e+00
  2.53179985e+01  1.37471138e+02]
beta-B2u nocc = 0
   mo_energy = [-3.82590676e-01 -4.68614190e-02  5.98770476e-01  1.61367854e+00
  1.61367854e+00  3.54954563e+00  5.90832633e+00  5.90832633e+00
  2.53179985e+01  1.37471138e+02]
beta-B3u nocc = 0
   mo_energy = [-3.82590676e-01 -4.68614190e-02  5.98770476e-01  1.61367854e+00
  1.61367854e+00  3.54954563e+00  5.90832633e+00  5.90832633e+00
  2.53179985e+01  1.37471138e+02]
multiplicity <S^2> = 3.755554  2S+1 = 4.002776
E1 = -98.4564904578162  Ecoul = 24.085547065379174
cycle= 8 E= -74.370943392437  delta_E= -1.95e-12  |g|= 1.88e-07  |ddm|= 2.68e-06
    CPU time for cycle= 8      0.09 sec, wall time      0.02 sec
diis-norm(errvec)=2.65842e-07
diis-c [-3.65429866e-15  1.40068932e-07  1.81530037e-06 -2.17066748e-05
  1.71872541e-04 -1.06153664e-03  1.46365466e-02 -1.68376643e-01
  1.15464951e+00]
alpha HOMO (B3u) = -1.3300343129103  LUMO (Ag) = -0.128052557106181
alpha irrep_nelec = [2, 0, 0, 0, 0, 1, 1, 1]
beta  irrep_nelec = [2, 0, 0, 0, 0, 0, 0, 0]
alpha-Ag nocc = 2  HOMO = -2.0722580201166  LUMO = -0.128052557106181
   mo_energy = [-2.14120324e+01 -2.07225802e+00 -1.28052557e-01  2.84238971e-01
  2.84238971e-01  6.44670328e-01  1.55839320e+00  1.55839320e+00
  4.49510615e+00  6.22191431e+00  6.22191431e+00  2.72785018e+01
  4.30990767e+01  4.30990767e+01  1.47582756e+02]
alpha-B1g nocc = 0
   mo_energy = [ 0.28423897  1.5583932   6.22191431 43.09907673]
alpha-B2g nocc = 0
   mo_energy = [ 0.28423897  1.5583932   6.22191431 43.09907673]
alpha-B3g nocc = 0
   mo_energy = [ 0.28423897  1.5583932   6.22191431 43.09907673]
alpha-Au nocc = 0
   mo_energy = [1.58224206 5.79047405]
alpha-B1u nocc = 1  HOMO = -1.3300343129103  LUMO = -0.0775822173336754
   mo_energy = [-1.33003431e+00 -7.75822173e-02  4.66466064e-01  1.58224206e+00
  1.58224206e+00  3.34309985e+00  5.79047405e+00  5.79047405e+00
  2.52100647e+01  1.37445326e+02]
alpha-B2u nocc = 1  HOMO = -1.3300343129103  LUMO = -0.0775822173336754
   mo_energy = [-1.33003431e+00 -7.75822173e-02  4.66466064e-01  1.58224206e+00
  1.58224206e+00  3.34309985e+00  5.79047405e+00  5.79047405e+00
  2.52100647e+01  1.37445326e+02]
alpha-B3u nocc = 1  HOMO = -1.3300343129103  LUMO = -0.0775822173336749
   mo_energy = [-1.33003431e+00 -7.75822173e-02  4.66466064e-01  1.58224206e+00
  1.58224206e+00  3.34309985e+00  5.79047405e+00  5.79047405e+00
  2.52100647e+01  1.37445326e+02]
beta-Ag nocc = 2  HOMO = -1.53176618712132  LUMO = -0.108463217872744
   mo_energy = [-2.12792368e+01 -1.53176619e+00 -1.08463218e-01  3.14652716e-01
  3.14652716e-01  7.28856555e-01  1.71450111e+00  1.71450111e+00
  4.64802184e+00  6.44778714e+00  6.44778714e+00  2.73692126e+01
  4.31968055e+01  4.31968055e+01  1.47607411e+02]
beta-B1g nocc = 0
   mo_energy = [ 0.31465272  1.71450111  6.44778714 43.19680547]
beta-B2g nocc = 0
   mo_energy = [ 0.31465272  1.71450111  6.44778714 43.19680547]
beta-B3g nocc = 0
   mo_energy = [ 0.31465272  1.71450111  6.44778714 43.19680547]
beta-Au nocc = 0
   mo_energy = [1.61367857 5.9083264 ]
beta-B1u nocc = 0
   mo_energy = [-3.82590624e-01 -4.68614136e-02  5.98770501e-01  1.61367857e+00
  1.61367857e+00  3.54954568e+00  5.90832640e+00  5.90832640e+00
  2.53179986e+01  1.37471138e+02]
beta-B2u nocc = 0
   mo_energy = [-3.82590624e-01 -4.68614136e-02  5.98770501e-01  1.61367857e+00
  1.61367857e+00  3.54954568e+00  5.90832640e+00  5.90832640e+00
  2.53179986e+01  1.37471138e+02]
beta-B3u nocc = 0
   mo_energy = [-3.82590624e-01 -4.68614136e-02  5.98770501e-01  1.61367857e+00
  1.61367857e+00  3.54954568e+00  5.90832640e+00  5.90832640e+00
  2.53179986e+01  1.37471138e+02]
multiplicity <S^2> = 3.755554  2S+1 = 4.002776
E1 = -98.45649043367042  Ecoul = 24.085547041233404
cycle= 9 E= -74.370943392437  delta_E=    0  |g|= 5.85e-09  |ddm|= 2.16e-07
    CPU time for cycle= 9      0.09 sec, wall time      0.02 sec
diis-norm(errvec)=8.26894e-09
Linear dependence found in DIIS error vectors.
diis-c [-1.71470238e-15  5.78186408e-01  9.13502298e-07 -1.15362603e-05
  9.53854405e-05 -5.97221879e-04  7.21213027e-03 -7.37074701e-02
  4.88821391e-01]
alpha HOMO (B2u) = -1.33003431063428  LUMO (Ag) = -0.128052555976683
alpha irrep_nelec = [2, 0, 0, 0, 0, 1, 1, 1]
beta  irrep_nelec = [2, 0, 0, 0, 0, 0, 0, 0]
alpha-Ag nocc = 2  HOMO = -2.07225801699584  LUMO = -0.128052555976683
   mo_energy = [-2.14120324e+01 -2.07225802e+00 -1.28052556e-01  2.84238973e-01
  2.84238973e-01  6.44670330e-01  1.55839321e+00  1.55839321e+00
  4.49510616e+00  6.22191431e+00  6.22191431e+00  2.72785018e+01
  4.30990767e+01  4.30990767e+01  1.47582756e+02]
alpha-B1g nocc = 0
   mo_energy = [ 0.28423897  1.55839321  6.22191431 43.09907674]
alpha-B2g nocc = 0
   mo_energy = [ 0.28423897  1.55839321  6.22191431 43.09907674]
alpha-B3g nocc = 0
   mo_energy = [ 0.28423897  1.55839321  6.22191431 43.09907674]
alpha-Au nocc = 0
   mo_energy = [1.58224206 5.79047406]
alpha-B1u nocc = 1  HOMO = -1.33003431063428  LUMO = -0.077582216375603
   mo_energy = [-1.33003431e+00 -7.75822164e-02  4.66466066e-01  1.58224206e+00
  1.58224206e+00  3.34309985e+00  5.79047406e+00  5.79047406e+00
  2.52100647e+01  1.37445326e+02]
alpha-B2u nocc = 1  HOMO = -1.33003431063428  LUMO = -0.0775822163756028
   mo_energy = [-1.33003431e+00 -7.75822164e-02  4.66466066e-01  1.58224206e+00
  1.58224206e+00  3.34309985e+00  5.79047406e+00  5.79047406e+00
  2.52100647e+01  1.37445326e+02]
alpha-B3u nocc = 1  HOMO = -1.33003431063428  LUMO = -0.077582216375603
   mo_energy = [-1.33003431e+00 -7.75822164e-02  4.66466066e-01  1.58224206e+00
  1.58224206e+00  3.34309985e+00  5.79047406e+00  5.79047406e+00
  2.52100647e+01  1.37445326e+02]
beta-Ag nocc = 2  HOMO = -1.5317661805116  LUMO = -0.10846321742569
   mo_energy = [-2.12792368e+01 -1.53176618e+00 -1.08463217e-01  3.14652717e-01
  3.14652717e-01  7.28856558e-01  1.71450111e+00  1.71450111e+00
  4.64802184e+00  6.44778715e+00  6.44778715e+00  2.73692126e+01
  4.31968055e+01  4.31968055e+01  1.47607411e+02]
beta-B1g nocc = 0
   mo_energy = [ 0.31465272  1.71450111  6.44778715 43.19680549]
beta-B2g nocc = 0
   mo_energy = [ 0.31465272  1.71450111  6.44778715 43.19680549]
beta-B3g nocc = 0
   mo_energy = [ 0.31465272  1.71450111  6.44778715 43.19680549]
beta-Au nocc = 0
   mo_energy = [1.61367857 5.90832641]
beta-B1u nocc = 0
   mo_energy = [-3.82590619e-01 -4.68614129e-02  5.98770504e-01  1.61367857e+00
  1.61367857e+00  3.54954569e+00  5.90832641e+00  5.90832641e+00
  2.53179986e+01  1.37471138e+02]
beta-B2u nocc = 0
   mo_energy = [-3.82590619e-01 -4.68614129e-02  5.98770504e-01  1.61367857e+00
  1.61367857e+00  3.54954569e+00  5.90832641e+00  5.90832641e+00
  2.53179986e+01  1.37471138e+02]
beta-B3u nocc = 0
   mo_energy = [-3.82590619e-01 -4.68614129e-02  5.98770504e-01  1.61367857e+00
  1.61367857e+00  3.54954569e+00  5.90832641e+00  5.90832641e+00
  2.53179986e+01  1.37471138e+02]
multiplicity <S^2> = 3.755554  2S+1 = 4.002776
E1 = -98.45649042238398  Ecoul = 24.085547029946856
cycle= 10 E= -74.3709433924371  delta_E= -9.95e-14  |g|= 4.85e-09  |ddm|= 3.24e-09
    CPU time for cycle= 10      0.09 sec, wall time      0.02 sec
diis-norm(errvec)=6.85324e-09
Linear dependence found in DIIS error vectors.
diis-c [-1.06623305e-15  3.61641481e-01  3.61677760e-01 -2.04619818e-06
  2.68144223e-05 -1.89150585e-04  3.11124569e-03 -4.03443460e-02
  3.14078242e-01]
alpha HOMO (B1u) = -1.3300343117931  LUMO (Ag) = -0.128052556177098
alpha irrep_nelec = [2, 0, 0, 0, 0, 1, 1, 1]
beta  irrep_nelec = [2, 0, 0, 0, 0, 0, 0, 0]
alpha-Ag nocc = 2  HOMO = -2.07225801849832  LUMO = -0.128052556177098
   mo_energy = [-2.14120324e+01 -2.07225802e+00 -1.28052556e-01  2.84238973e-01
  2.84238973e-01  6.44670330e-01  1.55839321e+00  1.55839321e+00
  4.49510616e+00  6.22191431e+00  6.22191431e+00  2.72785018e+01
  4.30990767e+01  4.30990767e+01  1.47582756e+02]
alpha-B1g nocc = 0
   mo_energy = [ 0.28423897  1.55839321  6.22191431 43.09907674]
alpha-B2g nocc = 0
   mo_energy = [ 0.28423897  1.55839321  6.22191431 43.09907674]
alpha-B3g nocc = 0
   mo_energy = [ 0.28423897  1.55839321  6.22191431 43.09907674]
alpha-Au nocc = 0
   mo_energy = [1.58224206 5.79047405]
alpha-B1u nocc = 1  HOMO = -1.3300343117931  LUMO = -0.0775822165026508
   mo_energy = [-1.33003431e+00 -7.75822165e-02  4.66466066e-01  1.58224206e+00
  1.58224206e+00  3.34309985e+00  5.79047405e+00  5.79047405e+00
  2.52100647e+01  1.37445326e+02]
alpha-B2u nocc = 1  HOMO = -1.33003431179311  LUMO = -0.0775822165026512
   mo_energy = [-1.33003431e+00 -7.75822165e-02  4.66466066e-01  1.58224206e+00
  1.58224206e+00  3.34309985e+00  5.79047405e+00  5.79047405e+00
  2.52100647e+01  1.37445326e+02]
alpha-B3u nocc = 1  HOMO = -1.33003431179311  LUMO = -0.0775822165026514
   mo_energy = [-1.33003431e+00 -7.75822165e-02  4.66466066e-01  1.58224206e+00
  1.58224206e+00  3.34309985e+00  5.79047405e+00  5.79047405e+00
  2.52100647e+01  1.37445326e+02]
beta-Ag nocc = 2  HOMO = -1.53176618132504  LUMO = -0.108463217500212
   mo_energy = [-2.12792368e+01 -1.53176618e+00 -1.08463218e-01  3.14652716e-01
  3.14652716e-01  7.28856557e-01  1.71450111e+00  1.71450111e+00
  4.64802184e+00  6.44778715e+00  6.44778715e+00  2.73692126e+01
  4.31968055e+01  4.31968055e+01  1.47607411e+02]
beta-B1g nocc = 0
   mo_energy = [ 0.31465272  1.71450111  6.44778715 43.19680548]
beta-B2g nocc = 0
   mo_energy = [ 0.31465272  1.71450111  6.44778715 43.19680548]
beta-B3g nocc = 0
   mo_energy = [ 0.31465272  1.71450111  6.44778715 43.19680548]
beta-Au nocc = 0
   mo_energy = [1.61367857 5.90832641]
beta-B1u nocc = 0
   mo_energy = [-3.82590620e-01 -4.68614130e-02  5.98770504e-01  1.61367857e+00
  1.61367857e+00  3.54954568e+00  5.90832641e+00  5.90832641e+00
  2.53179986e+01  1.37471138e+02]
beta-B2u nocc = 0
   mo_energy = [-3.82590620e-01 -4.68614130e-02  5.98770504e-01  1.61367857e+00
  1.61367857e+00  3.54954568e+00  5.90832641e+00  5.90832641e+00
  2.53179986e+01  1.37471138e+02]
beta-B3u nocc = 0
   mo_energy = [-3.82590620e-01 -4.68614130e-02  5.98770504e-01  1.61367857e+00
  1.61367857e+00  3.54954568e+00  5.90832641e+00  5.90832641e+00
  2.53179986e+01  1.37471138e+02]
multiplicity <S^2> = 3.755554  2S+1 = 4.002776
E1 = -98.45649042467979  Ecoul = 24.085547032242644
cycle= 11 E= -74.3709433924371  delta_E= -1.42e-14  |g|= 3.61e-09  |ddm|= 1.79e-09
    CPU time for cycle= 11      0.09 sec, wall time      0.02 sec
diis-norm(errvec)=5.11165e-09
Linear dependence found in DIIS error vectors.
diis-c [-9.73890609e-17  3.29713577e-01  3.39805790e-01  3.38253874e-01
  1.17214254e-07 -4.32048249e-06  7.11808343e-05 -3.36862192e-04
 -7.50335690e-03]
alpha HOMO (B3u) = -1.33003431515063  LUMO (Ag) = -0.128052556563312
alpha irrep_nelec = [2, 0, 0, 0, 0, 1, 1, 1]
beta  irrep_nelec = [2, 0, 0, 0, 0, 0, 0, 0]
alpha-Ag nocc = 2  HOMO = -2.07225802291165  LUMO = -0.128052556563312
   mo_energy = [-2.14120324e+01 -2.07225802e+00 -1.28052557e-01  2.84238972e-01
  2.84238972e-01  6.44670328e-01  1.55839320e+00  1.55839320e+00
  4.49510615e+00  6.22191431e+00  6.22191431e+00  2.72785018e+01
  4.30990767e+01  4.30990767e+01  1.47582756e+02]
alpha-B1g nocc = 0
   mo_energy = [ 0.28423897  1.5583932   6.22191431 43.09907673]
alpha-B2g nocc = 0
   mo_energy = [ 0.28423897  1.5583932   6.22191431 43.09907673]
alpha-B3g nocc = 0
   mo_energy = [ 0.28423897  1.5583932   6.22191431 43.09907673]
alpha-Au nocc = 0
   mo_energy = [1.58224206 5.79047405]
alpha-B1u nocc = 1  HOMO = -1.33003431515063  LUMO = -0.0775822166417574
   mo_energy = [-1.33003432e+00 -7.75822166e-02  4.66466065e-01  1.58224206e+00
  1.58224206e+00  3.34309985e+00  5.79047405e+00  5.79047405e+00
  2.52100647e+01  1.37445326e+02]
alpha-B2u nocc = 1  HOMO = -1.33003431515063  LUMO = -0.0775822166417582
   mo_energy = [-1.33003432e+00 -7.75822166e-02  4.66466065e-01  1.58224206e+00
  1.58224206e+00  3.34309985e+00  5.79047405e+00  5.79047405e+00
  2.52100647e+01  1.37445326e+02]
alpha-B3u nocc = 1  HOMO = -1.33003431515063  LUMO = -0.0775822166417569
   mo_energy = [-1.33003432e+00 -7.75822166e-02  4.66466065e-01  1.58224206e+00
  1.58224206e+00  3.34309985e+00  5.79047405e+00  5.79047405e+00
  2.52100647e+01  1.37445326e+02]
beta-Ag nocc = 2  HOMO = -1.53176618372374  LUMO = -0.108463217683626
   mo_energy = [-2.12792368e+01 -1.53176618e+00 -1.08463218e-01  3.14652716e-01
  3.14652716e-01  7.28856556e-01  1.71450111e+00  1.71450111e+00
  4.64802184e+00  6.44778714e+00  6.44778714e+00  2.73692126e+01
  4.31968055e+01  4.31968055e+01  1.47607411e+02]
beta-B1g nocc = 0
   mo_energy = [ 0.31465272  1.71450111  6.44778714 43.19680547]
beta-B2g nocc = 0
   mo_energy = [ 0.31465272  1.71450111  6.44778714 43.19680547]
beta-B3g nocc = 0
   mo_energy = [ 0.31465272  1.71450111  6.44778714 43.19680547]
beta-Au nocc = 0
   mo_energy = [1.61367857 5.9083264 ]
beta-B1u nocc = 0
   mo_energy = [-3.82590623e-01 -4.68614134e-02  5.98770502e-01  1.61367857e+00
  1.61367857e+00  3.54954568e+00  5.90832640e+00  5.90832640e+00
  2.53179986e+01  1.37471138e+02]
beta-B2u nocc = 0
   mo_energy = [-3.82590623e-01 -4.68614134e-02  5.98770502e-01  1.61367857e+00
  1.61367857e+00  3.54954568e+00  5.90832640e+00  5.90832640e+00
  2.53179986e+01  1.37471138e+02]
beta-B3u nocc = 0
   mo_energy = [-3.82590623e-01 -4.68614134e-02  5.98770502e-01  1.61367857e+00
  1.61367857e+00  3.54954568e+00  5.90832640e+00  5.90832640e+00
  2.53179986e+01  1.37471138e+02]
multiplicity <S^2> = 3.755554  2S+1 = 4.002776
E1 = -98.45649042737915  Ecoul = 24.08554703494216
cycle= 12 E= -74.370943392437  delta_E= 1.42e-13  |g|= 5.47e-10  |ddm|= 4.82e-09
    CPU time for cycle= 12      0.09 sec, wall time      0.02 sec
diis-norm(errvec)=7.73053e-10
Linear dependence found in DIIS error vectors.
diis-c [ 9.67195979e-17  2.47846537e-01  2.53846797e-01  2.52801664e-01
  2.53370122e-01 -2.54821906e-06  3.78787513e-05 -2.89097082e-05
 -7.87154098e-03]
alpha HOMO (B2u) = -1.33003431521377  LUMO (Ag) = -0.128052556571414
alpha irrep_nelec = [2, 0, 0, 0, 0, 1, 1, 1]
beta  irrep_nelec = [2, 0, 0, 0, 0, 0, 0, 0]
alpha-Ag nocc = 2  HOMO = -2.07225802302242  LUMO = -0.128052556571414
   mo_energy = [-2.14120324e+01 -2.07225802e+00 -1.28052557e-01  2.84238972e-01
  2.84238972e-01  6.44670328e-01  1.55839320e+00  1.55839320e+00
  4.49510615e+00  6.22191431e+00  6.22191431e+00  2.72785018e+01
  4.30990767e+01  4.30990767e+01  1.47582756e+02]
alpha-B1g nocc = 0
   mo_energy = [ 0.28423897  1.5583932   6.22191431 43.09907673]
alpha-B2g nocc = 0
   mo_energy = [ 0.28423897  1.5583932   6.22191431 43.09907673]
alpha-B3g nocc = 0
   mo_energy = [ 0.28423897  1.5583932   6.22191431 43.09907673]
alpha-Au nocc = 0
   mo_energy = [1.58224206 5.79047405]
alpha-B1u nocc = 1  HOMO = -1.33003431521377  LUMO = -0.0775822166436877
   mo_energy = [-1.33003432e+00 -7.75822166e-02  4.66466065e-01  1.58224206e+00
  1.58224206e+00  3.34309985e+00  5.79047405e+00  5.79047405e+00
  2.52100647e+01  1.37445326e+02]
alpha-B2u nocc = 1  HOMO = -1.33003431521377  LUMO = -0.0775822166436875
   mo_energy = [-1.33003432e+00 -7.75822166e-02  4.66466065e-01  1.58224206e+00
  1.58224206e+00  3.34309985e+00  5.79047405e+00  5.79047405e+00
  2.52100647e+01  1.37445326e+02]
alpha-B3u nocc = 1  HOMO = -1.33003431521377  LUMO = -0.0775822166436875
   mo_energy = [-1.33003432e+00 -7.75822166e-02  4.66466065e-01  1.58224206e+00
  1.58224206e+00  3.34309985e+00  5.79047405e+00  5.79047405e+00
  2.52100647e+01  1.37445326e+02]
beta-Ag nocc = 2  HOMO = -1.53176618371954  LUMO = -0.108463217683452
   mo_energy = [-2.12792368e+01 -1.53176618e+00 -1.08463218e-01  3.14652716e-01
  3.14652716e-01  7.28856556e-01  1.71450111e+00  1.71450111e+00
  4.64802184e+00  6.44778714e+00  6.44778714e+00  2.73692126e+01
  4.31968055e+01  4.31968055e+01  1.47607411e+02]
beta-B1g nocc = 0
   mo_energy = [ 0.31465272  1.71450111  6.44778714 43.19680547]
beta-B2g nocc = 0
   mo_energy = [ 0.31465272  1.71450111  6.44778714 43.19680547]
beta-B3g nocc = 0
   mo_energy = [ 0.31465272  1.71450111  6.44778714 43.19680547]
beta-Au nocc = 0
   mo_energy = [1.61367857 5.9083264 ]
beta-B1u nocc = 0
   mo_energy = [-3.82590623e-01 -4.68614134e-02  5.98770502e-01  1.61367857e+00
  1.61367857e+00  3.54954568e+00  5.90832640e+00  5.90832640e+00
  2.53179986e+01  1.37471138e+02]
beta-B2u nocc = 0
   mo_energy = [-3.82590623e-01 -4.68614134e-02  5.98770502e-01  1.61367857e+00
  1.61367857e+00  3.54954568e+00  5.90832640e+00  5.90832640e+00
  2.53179986e+01  1.37471138e+02]
beta-B3u nocc = 0
   mo_energy = [-3.82590623e-01 -4.68614134e-02  5.98770502e-01  1.61367857e+00
  1.61367857e+00  3.54954568e+00  5.90832640e+00  5.90832640e+00
  2.53179986e+01  1.37471138e+02]
multiplicity <S^2> = 3.755554  2S+1 = 4.002776
E1 = -98.45649042741461  Ecoul = 24.085547034977544
cycle= 13 E= -74.3709433924371  delta_E= -5.68e-14  |g|= 4.16e-10  |ddm|= 2.13e-10
    CPU time for cycle= 13      0.09 sec, wall time      0.02 sec
diis-norm(errvec)=5.8761e-10
Linear dependence found in DIIS error vectors.
diis-c [-8.36257078e-16  1.96875322e-01  2.01659474e-01  2.00844492e-01
  2.01337475e-01  2.01371149e-01  2.03989513e-05 -3.33631411e-04
 -1.77467964e-03]
alpha HOMO (B3u) = -1.33003431505959  LUMO (Ag) = -0.12805255655965
alpha irrep_nelec = [2, 0, 0, 0, 0, 1, 1, 1]
beta  irrep_nelec = [2, 0, 0, 0, 0, 0, 0, 0]
alpha-Ag nocc = 2  HOMO = -2.07225802286557  LUMO = -0.12805255655965
   mo_energy = [-2.14120324e+01 -2.07225802e+00 -1.28052557e-01  2.84238972e-01
  2.84238972e-01  6.44670328e-01  1.55839320e+00  1.55839320e+00
  4.49510615e+00  6.22191431e+00  6.22191431e+00  2.72785018e+01
  4.30990767e+01  4.30990767e+01  1.47582756e+02]
alpha-B1g nocc = 0
   mo_energy = [ 0.28423897  1.5583932   6.22191431 43.09907673]
alpha-B2g nocc = 0
   mo_energy = [ 0.28423897  1.5583932   6.22191431 43.09907673]
alpha-B3g nocc = 0
   mo_energy = [ 0.28423897  1.5583932   6.22191431 43.09907673]
alpha-Au nocc = 0
   mo_energy = [1.58224206 5.79047405]
alpha-B1u nocc = 1  HOMO = -1.33003431505959  LUMO = -0.0775822166379306
   mo_energy = [-1.33003432e+00 -7.75822166e-02  4.66466065e-01  1.58224206e+00
  1.58224206e+00  3.34309985e+00  5.79047405e+00  5.79047405e+00
  2.52100647e+01  1.37445326e+02]
alpha-B2u nocc = 1  HOMO = -1.33003431505959  LUMO = -0.0775822166379303
   mo_energy = [-1.33003432e+00 -7.75822166e-02  4.66466065e-01  1.58224206e+00
  1.58224206e+00  3.34309985e+00  5.79047405e+00  5.79047405e+00
  2.52100647e+01  1.37445326e+02]
alpha-B3u nocc = 1  HOMO = -1.33003431505959  LUMO = -0.0775822166379307
   mo_energy = [-1.33003432e+00 -7.75822166e-02  4.66466065e-01  1.58224206e+00
  1.58224206e+00  3.34309985e+00  5.79047405e+00  5.79047405e+00
  2.52100647e+01  1.37445326e+02]
beta-Ag nocc = 2  HOMO = -1.53176618381598  LUMO = -0.108463217693897
   mo_energy = [-2.12792368e+01 -1.53176618e+00 -1.08463218e-01  3.14652716e-01
  3.14652716e-01  7.28856556e-01  1.71450111e+00  1.71450111e+00
  4.64802184e+00  6.44778714e+00  6.44778714e+00  2.73692126e+01
  4.31968055e+01  4.31968055e+01  1.47607411e+02]
beta-B1g nocc = 0
   mo_energy = [ 0.31465272  1.71450111  6.44778714 43.19680547]
beta-B2g nocc = 0
   mo_energy = [ 0.31465272  1.71450111  6.44778714 43.19680547]
beta-B3g nocc = 0
   mo_energy = [ 0.31465272  1.71450111  6.44778714 43.19680547]
beta-Au nocc = 0
   mo_energy = [1.61367857 5.9083264 ]
beta-B1u nocc = 0
   mo_energy = [-3.82590623e-01 -4.68614134e-02  5.98770502e-01  1.61367857e+00
  1.61367857e+00  3.54954568e+00  5.90832640e+00  5.90832640e+00
  2.53179986e+01  1.37471138e+02]
beta-B2u nocc = 0
   mo_energy = [-3.82590623e-01 -4.68614134e-02  5.98770502e-01  1.61367857e+00
  1.61367857e+00  3.54954568e+00  5.90832640e+00  5.90832640e+00
  2.53179986e+01  1.37471138e+02]
beta-B3u nocc = 0
   mo_energy = [-3.82590623e-01 -4.68614134e-02  5.98770502e-01  1.61367857e+00
  1.61367857e+00  3.54954568e+00  5.90832640e+00  5.90832640e+00
  2.53179986e+01  1.37471138e+02]
multiplicity <S^2> = 3.755554  2S+1 = 4.002776
E1 = -98.45649042719114  Ecoul = 24.08554703475416
cycle= 14 E= -74.370943392437  delta_E= 7.11e-14  |g|= 5.72e-10  |ddm|= 7.4e-10
    CPU time for cycle= 14      0.09 sec, wall time      0.02 sec
diis-norm(errvec)=8.09149e-10
Linear dependence found in DIIS error vectors.
diis-c [-2.36732543e-17  1.65084838e-01  1.68217213e-01  1.67778004e-01
  1.68606315e-01  1.68642595e-01  1.68705129e-01  2.03109782e-04
 -7.23720347e-03]
alpha HOMO (B2u) = -1.33003431522935  LUMO (Ag) = -0.1280525565817
alpha irrep_nelec = [2, 0, 0, 0, 0, 1, 1, 1]
beta  irrep_nelec = [2, 0, 0, 0, 0, 0, 0, 0]
alpha-Ag nocc = 2  HOMO = -2.07225802309057  LUMO = -0.1280525565817
   mo_energy = [-2.14120324e+01 -2.07225802e+00 -1.28052557e-01  2.84238972e-01
  2.84238972e-01  6.44670328e-01  1.55839320e+00  1.55839320e+00
  4.49510615e+00  6.22191431e+00  6.22191431e+00  2.72785018e+01
  4.30990767e+01  4.30990767e+01  1.47582756e+02]
alpha-B1g nocc = 0
   mo_energy = [ 0.28423897  1.5583932   6.22191431 43.09907673]
alpha-B2g nocc = 0
   mo_energy = [ 0.28423897  1.5583932   6.22191431 43.09907673]
alpha-B3g nocc = 0
   mo_energy = [ 0.28423897  1.5583932   6.22191431 43.09907673]
alpha-Au nocc = 0
   mo_energy = [1.58224206 5.79047405]
alpha-B1u nocc = 1  HOMO = -1.33003431522936  LUMO = -0.0775822166437548
   mo_energy = [-1.33003432e+00 -7.75822166e-02  4.66466065e-01  1.58224206e+00
  1.58224206e+00  3.34309985e+00  5.79047405e+00  5.79047405e+00
  2.52100647e+01  1.37445326e+02]
alpha-B2u nocc = 1  HOMO = -1.33003431522935  LUMO = -0.0775822166437544
   mo_energy = [-1.33003432e+00 -7.75822166e-02  4.66466065e-01  1.58224206e+00
  1.58224206e+00  3.34309985e+00  5.79047405e+00  5.79047405e+00
  2.52100647e+01  1.37445326e+02]
alpha-B3u nocc = 1  HOMO = -1.33003431522935  LUMO = -0.0775822166437545
   mo_energy = [-1.33003432e+00 -7.75822166e-02  4.66466065e-01  1.58224206e+00
  1.58224206e+00  3.34309985e+00  5.79047405e+00  5.79047405e+00
  2.52100647e+01  1.37445326e+02]
beta-Ag nocc = 2  HOMO = -1.53176618401095  LUMO = -0.108463217706151
   mo_energy = [-2.12792368e+01 -1.53176618e+00 -1.08463218e-01  3.14652716e-01
  3.14652716e-01  7.28856556e-01  1.71450111e+00  1.71450111e+00
  4.64802184e+00  6.44778714e+00  6.44778714e+00  2.73692126e+01
  4.31968055e+01  4.31968055e+01  1.47607411e+02]
beta-B1g nocc = 0
   mo_energy = [ 0.31465272  1.71450111  6.44778714 43.19680547]
beta-B2g nocc = 0
   mo_energy = [ 0.31465272  1.71450111  6.44778714 43.19680547]
beta-B3g nocc = 0
   mo_energy = [ 0.31465272  1.71450111  6.44778714 43.19680547]
beta-Au nocc = 0
   mo_energy = [1.61367857 5.9083264 ]
beta-B1u nocc = 0
   mo_energy = [-3.82590623e-01 -4.68614134e-02  5.98770502e-01  1.61367857e+00
  1.61367857e+00  3.54954568e+00  5.90832640e+00  5.90832640e+00
  2.53179986e+01  1.37471138e+02]
beta-B2u nocc = 0
   mo_energy = [-3.82590623e-01 -4.68614134e-02  5.98770502e-01  1.61367857e+00
  1.61367857e+00  3.54954568e+00  5.90832640e+00  5.90832640e+00
  2.53179986e+01  1.37471138e+02]
beta-B3u nocc = 0
   mo_energy = [-3.82590623e-01 -4.68614134e-02  5.98770502e-01  1.61367857e+00
  1.61367857e+00  3.54954568e+00  5.90832640e+00  5.90832640e+00
  2.53179986e+01  1.37471138e+02]
multiplicity <S^2> = 3.755554  2S+1 = 4.002776
E1 = -98.45649042726384  Ecoul = 24.085547034826888
cycle= 15 E= -74.370943392437  delta_E= 2.84e-14  |g|= 5.3e-10  |ddm|= 6.78e-11
    CPU time for cycle= 15      0.09 sec, wall time      0.02 sec
diis-norm(errvec)=7.50136e-10
Linear dependence found in DIIS error vectors.
diis-c [ 2.26228969e-16  1.42314720e-01  1.42831850e-01  1.42795518e-01
  1.43825554e-01  1.43857142e-01  1.43864057e-01  1.43912067e-01
 -3.40090743e-03]
alpha HOMO (B3u) = -1.33003431519048  LUMO (Ag) = -0.128052556582224
alpha irrep_nelec = [2, 0, 0, 0, 0, 1, 1, 1]
beta  irrep_nelec = [2, 0, 0, 0, 0, 0, 0, 0]
alpha-Ag nocc = 2  HOMO = -2.07225802305192  LUMO = -0.128052556582224
   mo_energy = [-2.14120324e+01 -2.07225802e+00 -1.28052557e-01  2.84238972e-01
  2.84238972e-01  6.44670328e-01  1.55839320e+00  1.55839320e+00
  4.49510615e+00  6.22191431e+00  6.22191431e+00  2.72785018e+01
  4.30990767e+01  4.30990767e+01  1.47582756e+02]
alpha-B1g nocc = 0
   mo_energy = [ 0.28423897  1.5583932   6.22191431 43.09907673]
alpha-B2g nocc = 0
   mo_energy = [ 0.28423897  1.5583932   6.22191431 43.09907673]
alpha-B3g nocc = 0
   mo_energy = [ 0.28423897  1.5583932   6.22191431 43.09907673]
alpha-Au nocc = 0
   mo_energy = [1.58224206 5.79047405]
alpha-B1u nocc = 1  HOMO = -1.33003431519049  LUMO = -0.0775822166437506
   mo_energy = [-1.33003432e+00 -7.75822166e-02  4.66466065e-01  1.58224206e+00
  1.58224206e+00  3.34309985e+00  5.79047405e+00  5.79047405e+00
  2.52100647e+01  1.37445326e+02]
alpha-B2u nocc = 1  HOMO = -1.33003431519048  LUMO = -0.077582216643751
   mo_energy = [-1.33003432e+00 -7.75822166e-02  4.66466065e-01  1.58224206e+00
  1.58224206e+00  3.34309985e+00  5.79047405e+00  5.79047405e+00
  2.52100647e+01  1.37445326e+02]
alpha-B3u nocc = 1  HOMO = -1.33003431519048  LUMO = -0.0775822166437506
   mo_energy = [-1.33003432e+00 -7.75822166e-02  4.66466065e-01  1.58224206e+00
  1.58224206e+00  3.34309985e+00  5.79047405e+00  5.79047405e+00
  2.52100647e+01  1.37445326e+02]
beta-Ag nocc = 2  HOMO = -1.53176618393985  LUMO = -0.10846321770228
   mo_energy = [-2.12792368e+01 -1.53176618e+00 -1.08463218e-01  3.14652716e-01
  3.14652716e-01  7.28856556e-01  1.71450111e+00  1.71450111e+00
  4.64802184e+00  6.44778714e+00  6.44778714e+00  2.73692126e+01
  4.31968055e+01  4.31968055e+01  1.47607411e+02]
beta-B1g nocc = 0
   mo_energy = [ 0.31465272  1.71450111  6.44778714 43.19680547]
beta-B2g nocc = 0
   mo_energy = [ 0.31465272  1.71450111  6.44778714 43.19680547]
beta-B3g nocc = 0
   mo_energy = [ 0.31465272  1.71450111  6.44778714 43.19680547]
beta-Au nocc = 0
   mo_energy = [1.61367857 5.9083264 ]
beta-B1u nocc = 0
   mo_energy = [-3.82590623e-01 -4.68614134e-02  5.98770502e-01  1.61367857e+00
  1.61367857e+00  3.54954568e+00  5.90832640e+00  5.90832640e+00
  2.53179986e+01  1.37471138e+02]
beta-B2u nocc = 0
   mo_energy = [-3.82590623e-01 -4.68614134e-02  5.98770502e-01  1.61367857e+00
  1.61367857e+00  3.54954568e+00  5.90832640e+00  5.90832640e+00
  2.53179986e+01  1.37471138e+02]
beta-B3u nocc = 0
   mo_energy = [-3.82590623e-01 -4.68614134e-02  5.98770502e-01  1.61367857e+00
  1.61367857e+00  3.54954568e+00  5.90832640e+00  5.90832640e+00
  2.53179986e+01  1.37471138e+02]
multiplicity <S^2> = 3.755554  2S+1 = 4.002776
E1 = -98.45649042720501  Ecoul = 24.08554703476792
cycle= 16 E= -74.3709433924371  delta_E= -1.28e-13  |g|= 4.73e-10  |ddm|= 3.78e-11
    CPU time for cycle= 16      0.09 sec, wall time      0.02 sec
diis-norm(errvec)=6.69004e-10
Linear dependence found in DIIS error vectors.
diis-c [-2.89052492e-16  1.25000000e-01  1.25000000e-01  1.25000000e-01
  1.25000000e-01  1.25000000e-01  1.25000000e-01  1.25000000e-01
  1.25000000e-01]
alpha HOMO (B2u) = -1.33003431521327  LUMO (Ag) = -0.128052556583447
alpha irrep_nelec = [2, 0, 0, 0, 0, 1, 1, 1]
beta  irrep_nelec = [2, 0, 0, 0, 0, 0, 0, 0]
alpha-Ag nocc = 2  HOMO = -2.07225802302647  LUMO = -0.128052556583447
   mo_energy = [-2.14120324e+01 -2.07225802e+00 -1.28052557e-01  2.84238972e-01
  2.84238972e-01  6.44670328e-01  1.55839320e+00  1.55839320e+00
  4.49510615e+00  6.22191431e+00  6.22191431e+00  2.72785018e+01
  4.30990767e+01  4.30990767e+01  1.47582756e+02]
alpha-B1g nocc = 0
   mo_energy = [ 0.28423897  1.5583932   6.22191431 43.09907673]
alpha-B2g nocc = 0
   mo_energy = [ 0.28423897  1.5583932   6.22191431 43.09907673]
alpha-B3g nocc = 0
   mo_energy = [ 0.28423897  1.5583932   6.22191431 43.09907673]
alpha-Au nocc = 0
   mo_energy = [1.58224206 5.79047405]
alpha-B1u nocc = 1  HOMO = -1.33003431521327  LUMO = -0.0775822166459985
   mo_energy = [-1.33003432e+00 -7.75822166e-02  4.66466065e-01  1.58224206e+00
  1.58224206e+00  3.34309985e+00  5.79047405e+00  5.79047405e+00
  2.52100647e+01  1.37445326e+02]
alpha-B2u nocc = 1  HOMO = -1.33003431521327  LUMO = -0.0775822166459978
   mo_energy = [-1.33003432e+00 -7.75822166e-02  4.66466065e-01  1.58224206e+00
  1.58224206e+00  3.34309985e+00  5.79047405e+00  5.79047405e+00
  2.52100647e+01  1.37445326e+02]
alpha-B3u nocc = 1  HOMO = -1.33003431521327  LUMO = -0.0775822166459986
   mo_energy = [-1.33003432e+00 -7.75822166e-02  4.66466065e-01  1.58224206e+00
  1.58224206e+00  3.34309985e+00  5.79047405e+00  5.79047405e+00
  2.52100647e+01  1.37445326e+02]
beta-Ag nocc = 2  HOMO = -1.53176618391435  LUMO = -0.108463217700927
   mo_energy = [-2.12792368e+01 -1.53176618e+00 -1.08463218e-01  3.14652716e-01
  3.14652716e-01  7.28856556e-01  1.71450111e+00  1.71450111e+00
  4.64802184e+00  6.44778714e+00  6.44778714e+00  2.73692126e+01
  4.31968055e+01  4.31968055e+01  1.47607411e+02]
beta-B1g nocc = 0
   mo_energy = [ 0.31465272  1.71450111  6.44778714 43.19680547]
beta-B2g nocc = 0
   mo_energy = [ 0.31465272  1.71450111  6.44778714 43.19680547]
beta-B3g nocc = 0
   mo_energy = [ 0.31465272  1.71450111  6.44778714 43.19680547]
beta-Au nocc = 0
   mo_energy = [1.61367857 5.9083264 ]
beta-B1u nocc = 0
   mo_energy = [-3.82590623e-01 -4.68614134e-02  5.98770502e-01  1.61367857e+00
[...]
  2.53179986e+01  1.37471138e+02]
beta-B3u nocc = 0
   mo_energy = [-3.82590623e-01 -4.68614134e-02  5.98770502e-01  1.61367857e+00
  1.61367857e+00  3.54954568e+00  5.90832640e+00  5.90832640e+00
  2.53179986e+01  1.37471138e+02]
multiplicity <S^2> = 3.755554  2S+1 = 4.002776
E1 = -98.45649042724492  Ecoul = 24.085547034807874
cycle= 113 E= -74.370943392437  delta_E=    0  |g|= 8.8e-14  |ddm|= 1.02e-13
    CPU time for cycle= 113      0.09 sec, wall time      0.02 sec
diis-norm(errvec)=1.19168e-13
Linear dependence found in DIIS error vectors.
diis-c [-2.89052492e-16  1.25000000e-01  1.25000000e-01  1.25000000e-01
  1.25000000e-01  1.25000000e-01  1.25000000e-01  1.25000000e-01
  1.25000000e-01]
alpha HOMO (B2u) = -1.33003431528609  LUMO (Ag) = -0.128052556597868
alpha irrep_nelec = [2, 0, 0, 0, 0, 1, 1, 1]
beta  irrep_nelec = [2, 0, 0, 0, 0, 0, 0, 0]
alpha-Ag nocc = 2  HOMO = -2.07225802323031  LUMO = -0.128052556597868
   mo_energy = [-2.14120324e+01 -2.07225802e+00 -1.28052557e-01  2.84238972e-01
  2.84238972e-01  6.44670328e-01  1.55839320e+00  1.55839320e+00
  4.49510615e+00  6.22191431e+00  6.22191431e+00  2.72785018e+01
  4.30990767e+01  4.30990767e+01  1.47582756e+02]
alpha-B1g nocc = 0
   mo_energy = [ 0.28423897  1.5583932   6.22191431 43.09907673]
alpha-B2g nocc = 0
   mo_energy = [ 0.28423897  1.5583932   6.22191431 43.09907673]
alpha-B3g nocc = 0
   mo_energy = [ 0.28423897  1.5583932   6.22191431 43.09907673]
alpha-Au nocc = 0
   mo_energy = [1.58224206 5.79047405]
alpha-B1u nocc = 1  HOMO = -1.33003431528609  LUMO = -0.0775822166484292
   mo_energy = [-1.33003432e+00 -7.75822166e-02  4.66466065e-01  1.58224206e+00
  1.58224206e+00  3.34309985e+00  5.79047405e+00  5.79047405e+00
  2.52100647e+01  1.37445326e+02]
alpha-B2u nocc = 1  HOMO = -1.33003431528609  LUMO = -0.0775822166484289
   mo_energy = [-1.33003432e+00 -7.75822166e-02  4.66466065e-01  1.58224206e+00
  1.58224206e+00  3.34309985e+00  5.79047405e+00  5.79047405e+00
  2.52100647e+01  1.37445326e+02]
alpha-B3u nocc = 1  HOMO = -1.33003431528609  LUMO = -0.0775822166484275
   mo_energy = [-1.33003432e+00 -7.75822166e-02  4.66466065e-01  1.58224206e+00
  1.58224206e+00  3.34309985e+00  5.79047405e+00  5.79047405e+00
  2.52100647e+01  1.37445326e+02]
beta-Ag nocc = 2  HOMO = -1.53176618369127  LUMO = -0.108463217686617
   mo_energy = [-2.12792368e+01 -1.53176618e+00 -1.08463218e-01  3.14652716e-01
  3.14652716e-01  7.28856556e-01  1.71450111e+00  1.71450111e+00
  4.64802184e+00  6.44778714e+00  6.44778714e+00  2.73692126e+01
  4.31968055e+01  4.31968055e+01  1.47607411e+02]
beta-B1g nocc = 0
   mo_energy = [ 0.31465272  1.71450111  6.44778714 43.19680547]
beta-B2g nocc = 0
   mo_energy = [ 0.31465272  1.71450111  6.44778714 43.19680547]
beta-B3g nocc = 0
   mo_energy = [ 0.31465272  1.71450111  6.44778714 43.19680547]
beta-Au nocc = 0
   mo_energy = [1.61367857 5.9083264 ]
beta-B1u nocc = 0
   mo_energy = [-3.82590623e-01 -4.68614134e-02  5.98770502e-01  1.61367857e+00
  1.61367857e+00  3.54954568e+00  5.90832640e+00  5.90832640e+00
  2.53179986e+01  1.37471138e+02]
beta-B2u nocc = 0
   mo_energy = [-3.82590623e-01 -4.68614134e-02  5.98770502e-01  1.61367857e+00
  1.61367857e+00  3.54954568e+00  5.90832640e+00  5.90832640e+00
  2.53179986e+01  1.37471138e+02]
beta-B3u nocc = 0
   mo_energy = [-3.82590623e-01 -4.68614134e-02  5.98770502e-01  1.61367857e+00
  1.61367857e+00  3.54954568e+00  5.90832640e+00  5.90832640e+00
  2.53179986e+01  1.37471138e+02]
multiplicity <S^2> = 3.755554  2S+1 = 4.002776
E1 = -98.4564904272449  Ecoul = 24.085547034807874
cycle= 114 E= -74.370943392437  delta_E= 1.42e-14  |g|= 8.36e-14  |ddm|= 1.49e-13
    CPU time for cycle= 114      0.09 sec, wall time      0.02 sec
diis-norm(errvec)=9.56976e-14
Linear dependence found in DIIS error vectors.
diis-c [-2.89052492e-16  1.25000000e-01  1.25000000e-01  1.25000000e-01
  1.25000000e-01  1.25000000e-01  1.25000000e-01  1.25000000e-01
  1.25000000e-01]
alpha HOMO (B1u) = -1.33003431528609  LUMO (Ag) = -0.128052556597862
alpha irrep_nelec = [2, 0, 0, 0, 0, 1, 1, 1]
beta  irrep_nelec = [2, 0, 0, 0, 0, 0, 0, 0]
alpha-Ag nocc = 2  HOMO = -2.07225802323032  LUMO = -0.128052556597862
   mo_energy = [-2.14120324e+01 -2.07225802e+00 -1.28052557e-01  2.84238972e-01
  2.84238972e-01  6.44670328e-01  1.55839320e+00  1.55839320e+00
  4.49510615e+00  6.22191431e+00  6.22191431e+00  2.72785018e+01
  4.30990767e+01  4.30990767e+01  1.47582756e+02]
alpha-B1g nocc = 0
   mo_energy = [ 0.28423897  1.5583932   6.22191431 43.09907673]
alpha-B2g nocc = 0
   mo_energy = [ 0.28423897  1.5583932   6.22191431 43.09907673]
alpha-B3g nocc = 0
   mo_energy = [ 0.28423897  1.5583932   6.22191431 43.09907673]
alpha-Au nocc = 0
   mo_energy = [1.58224206 5.79047405]
alpha-B1u nocc = 1  HOMO = -1.33003431528609  LUMO = -0.0775822166484291
   mo_energy = [-1.33003432e+00 -7.75822166e-02  4.66466065e-01  1.58224206e+00
  1.58224206e+00  3.34309985e+00  5.79047405e+00  5.79047405e+00
  2.52100647e+01  1.37445326e+02]
alpha-B2u nocc = 1  HOMO = -1.33003431528609  LUMO = -0.0775822166484293
   mo_energy = [-1.33003432e+00 -7.75822166e-02  4.66466065e-01  1.58224206e+00
  1.58224206e+00  3.34309985e+00  5.79047405e+00  5.79047405e+00
  2.52100647e+01  1.37445326e+02]
alpha-B3u nocc = 1  HOMO = -1.33003431528609  LUMO = -0.0775822166484281
   mo_energy = [-1.33003432e+00 -7.75822166e-02  4.66466065e-01  1.58224206e+00
  1.58224206e+00  3.34309985e+00  5.79047405e+00  5.79047405e+00
  2.52100647e+01  1.37445326e+02]
beta-Ag nocc = 2  HOMO = -1.53176618369128  LUMO = -0.108463217686621
   mo_energy = [-2.12792368e+01 -1.53176618e+00 -1.08463218e-01  3.14652716e-01
  3.14652716e-01  7.28856556e-01  1.71450111e+00  1.71450111e+00
  4.64802184e+00  6.44778714e+00  6.44778714e+00  2.73692126e+01
  4.31968055e+01  4.31968055e+01  1.47607411e+02]
beta-B1g nocc = 0
   mo_energy = [ 0.31465272  1.71450111  6.44778714 43.19680547]
beta-B2g nocc = 0
   mo_energy = [ 0.31465272  1.71450111  6.44778714 43.19680547]
beta-B3g nocc = 0
   mo_energy = [ 0.31465272  1.71450111  6.44778714 43.19680547]
beta-Au nocc = 0
   mo_energy = [1.61367857 5.9083264 ]
beta-B1u nocc = 0
   mo_energy = [-3.82590623e-01 -4.68614134e-02  5.98770502e-01  1.61367857e+00
  1.61367857e+00  3.54954568e+00  5.90832640e+00  5.90832640e+00
  2.53179986e+01  1.37471138e+02]
beta-B2u nocc = 0
   mo_energy = [-3.82590623e-01 -4.68614134e-02  5.98770502e-01  1.61367857e+00
  1.61367857e+00  3.54954568e+00  5.90832640e+00  5.90832640e+00
  2.53179986e+01  1.37471138e+02]
beta-B3u nocc = 0
   mo_energy = [-3.82590623e-01 -4.68614134e-02  5.98770502e-01  1.61367857e+00
  1.61367857e+00  3.54954568e+00  5.90832640e+00  5.90832640e+00
  2.53179986e+01  1.37471138e+02]
multiplicity <S^2> = 3.755554  2S+1 = 4.002776
E1 = -98.45649042724492  Ecoul = 24.085547034807867
cycle= 115 E= -74.3709433924371  delta_E= -2.84e-14  |g|= 8.76e-14  |ddm|= 3.69e-14
    CPU time for cycle= 115      0.09 sec, wall time      0.02 sec
diis-norm(errvec)=1.20105e-13
Linear dependence found in DIIS error vectors.
diis-c [-2.89052492e-16  1.25000000e-01  1.25000000e-01  1.25000000e-01
  1.25000000e-01  1.25000000e-01  1.25000000e-01  1.25000000e-01
  1.25000000e-01]
alpha HOMO (B1u) = -1.33003431528608  LUMO (Ag) = -0.128052556597859
alpha irrep_nelec = [2, 0, 0, 0, 0, 1, 1, 1]
beta  irrep_nelec = [2, 0, 0, 0, 0, 0, 0, 0]
alpha-Ag nocc = 2  HOMO = -2.07225802323031  LUMO = -0.128052556597859
   mo_energy = [-2.14120324e+01 -2.07225802e+00 -1.28052557e-01  2.84238972e-01
  2.84238972e-01  6.44670328e-01  1.55839320e+00  1.55839320e+00
  4.49510615e+00  6.22191431e+00  6.22191431e+00  2.72785018e+01
  4.30990767e+01  4.30990767e+01  1.47582756e+02]
alpha-B1g nocc = 0
   mo_energy = [ 0.28423897  1.5583932   6.22191431 43.09907673]
alpha-B2g nocc = 0
   mo_energy = [ 0.28423897  1.5583932   6.22191431 43.09907673]
alpha-B3g nocc = 0
   mo_energy = [ 0.28423897  1.5583932   6.22191431 43.09907673]
alpha-Au nocc = 0
   mo_energy = [1.58224206 5.79047405]
alpha-B1u nocc = 1  HOMO = -1.33003431528608  LUMO = -0.0775822166484277
   mo_energy = [-1.33003432e+00 -7.75822166e-02  4.66466065e-01  1.58224206e+00
  1.58224206e+00  3.34309985e+00  5.79047405e+00  5.79047405e+00
  2.52100647e+01  1.37445326e+02]
alpha-B2u nocc = 1  HOMO = -1.33003431528609  LUMO = -0.0775822166484295
   mo_energy = [-1.33003432e+00 -7.75822166e-02  4.66466065e-01  1.58224206e+00
  1.58224206e+00  3.34309985e+00  5.79047405e+00  5.79047405e+00
  2.52100647e+01  1.37445326e+02]
alpha-B3u nocc = 1  HOMO = -1.33003431528609  LUMO = -0.077582216648429
   mo_energy = [-1.33003432e+00 -7.75822166e-02  4.66466065e-01  1.58224206e+00
  1.58224206e+00  3.34309985e+00  5.79047405e+00  5.79047405e+00
  2.52100647e+01  1.37445326e+02]
beta-Ag nocc = 2  HOMO = -1.53176618369129  LUMO = -0.108463217686619
   mo_energy = [-2.12792368e+01 -1.53176618e+00 -1.08463218e-01  3.14652716e-01
  3.14652716e-01  7.28856556e-01  1.71450111e+00  1.71450111e+00
  4.64802184e+00  6.44778714e+00  6.44778714e+00  2.73692126e+01
  4.31968055e+01  4.31968055e+01  1.47607411e+02]
beta-B1g nocc = 0
   mo_energy = [ 0.31465272  1.71450111  6.44778714 43.19680547]
beta-B2g nocc = 0
   mo_energy = [ 0.31465272  1.71450111  6.44778714 43.19680547]
beta-B3g nocc = 0
   mo_energy = [ 0.31465272  1.71450111  6.44778714 43.19680547]
beta-Au nocc = 0
   mo_energy = [1.61367857 5.9083264 ]
beta-B1u nocc = 0
   mo_energy = [-3.82590623e-01 -4.68614134e-02  5.98770502e-01  1.61367857e+00
  1.61367857e+00  3.54954568e+00  5.90832640e+00  5.90832640e+00
  2.53179986e+01  1.37471138e+02]
beta-B2u nocc = 0
   mo_energy = [-3.82590623e-01 -4.68614134e-02  5.98770502e-01  1.61367857e+00
  1.61367857e+00  3.54954568e+00  5.90832640e+00  5.90832640e+00
  2.53179986e+01  1.37471138e+02]
beta-B3u nocc = 0
   mo_energy = [-3.82590623e-01 -4.68614134e-02  5.98770502e-01  1.61367857e+00
  1.61367857e+00  3.54954568e+00  5.90832640e+00  5.90832640e+00
  2.53179986e+01  1.37471138e+02]
multiplicity <S^2> = 3.755554  2S+1 = 4.002776
E1 = -98.45649042724486  Ecoul = 24.08554703480784
cycle= 116 E= -74.370943392437  delta_E= 2.84e-14  |g|= 7.21e-14  |ddm|= 7.31e-14
    CPU time for cycle= 116      0.09 sec, wall time      0.02 sec
diis-norm(errvec)=1.18342e-13
Linear dependence found in DIIS error vectors.
diis-c [-2.89052492e-16  1.25000000e-01  1.25000000e-01  1.25000000e-01
  1.25000000e-01  1.25000000e-01  1.25000000e-01  1.25000000e-01
  1.25000000e-01]
alpha HOMO (B1u) = -1.33003431528609  LUMO (Ag) = -0.128052556597861
alpha irrep_nelec = [2, 0, 0, 0, 0, 1, 1, 1]
beta  irrep_nelec = [2, 0, 0, 0, 0, 0, 0, 0]
alpha-Ag nocc = 2  HOMO = -2.07225802323031  LUMO = -0.128052556597861
   mo_energy = [-2.14120324e+01 -2.07225802e+00 -1.28052557e-01  2.84238972e-01
  2.84238972e-01  6.44670328e-01  1.55839320e+00  1.55839320e+00
  4.49510615e+00  6.22191431e+00  6.22191431e+00  2.72785018e+01
  4.30990767e+01  4.30990767e+01  1.47582756e+02]
alpha-B1g nocc = 0
   mo_energy = [ 0.28423897  1.5583932   6.22191431 43.09907673]
alpha-B2g nocc = 0
   mo_energy = [ 0.28423897  1.5583932   6.22191431 43.09907673]
alpha-B3g nocc = 0
   mo_energy = [ 0.28423897  1.5583932   6.22191431 43.09907673]
alpha-Au nocc = 0
   mo_energy = [1.58224206 5.79047405]
alpha-B1u nocc = 1  HOMO = -1.33003431528609  LUMO = -0.0775822166484285
   mo_energy = [-1.33003432e+00 -7.75822166e-02  4.66466065e-01  1.58224206e+00
  1.58224206e+00  3.34309985e+00  5.79047405e+00  5.79047405e+00
  2.52100647e+01  1.37445326e+02]
alpha-B2u nocc = 1  HOMO = -1.33003431528609  LUMO = -0.0775822166484292
   mo_energy = [-1.33003432e+00 -7.75822166e-02  4.66466065e-01  1.58224206e+00
  1.58224206e+00  3.34309985e+00  5.79047405e+00  5.79047405e+00
  2.52100647e+01  1.37445326e+02]
alpha-B3u nocc = 1  HOMO = -1.33003431528609  LUMO = -0.0775822166484283
   mo_energy = [-1.33003432e+00 -7.75822166e-02  4.66466065e-01  1.58224206e+00
  1.58224206e+00  3.34309985e+00  5.79047405e+00  5.79047405e+00
  2.52100647e+01  1.37445326e+02]
beta-Ag nocc = 2  HOMO = -1.53176618369127  LUMO = -0.10846321768662
   mo_energy = [-2.12792368e+01 -1.53176618e+00 -1.08463218e-01  3.14652716e-01
  3.14652716e-01  7.28856556e-01  1.71450111e+00  1.71450111e+00
  4.64802184e+00  6.44778714e+00  6.44778714e+00  2.73692126e+01
  4.31968055e+01  4.31968055e+01  1.47607411e+02]
beta-B1g nocc = 0
   mo_energy = [ 0.31465272  1.71450111  6.44778714 43.19680547]
beta-B2g nocc = 0
   mo_energy = [ 0.31465272  1.71450111  6.44778714 43.19680547]
beta-B3g nocc = 0
   mo_energy = [ 0.31465272  1.71450111  6.44778714 43.19680547]
beta-Au nocc = 0
   mo_energy = [1.61367857 5.9083264 ]
beta-B1u nocc = 0
   mo_energy = [-3.82590623e-01 -4.68614134e-02  5.98770502e-01  1.61367857e+00
  1.61367857e+00  3.54954568e+00  5.90832640e+00  5.90832640e+00
  2.53179986e+01  1.37471138e+02]
beta-B2u nocc = 0
   mo_energy = [-3.82590623e-01 -4.68614134e-02  5.98770502e-01  1.61367857e+00
  1.61367857e+00  3.54954568e+00  5.90832640e+00  5.90832640e+00
  2.53179986e+01  1.37471138e+02]
beta-B3u nocc = 0
   mo_energy = [-3.82590623e-01 -4.68614134e-02  5.98770502e-01  1.61367857e+00
  1.61367857e+00  3.54954568e+00  5.90832640e+00  5.90832640e+00
  2.53179986e+01  1.37471138e+02]
multiplicity <S^2> = 3.755554  2S+1 = 4.002776
E1 = -98.4564904272449  Ecoul = 24.085547034807853
cycle= 117 E= -74.3709433924371  delta_E= -2.84e-14  |g|= 6.27e-14  |ddm|= 8.3e-14
    CPU time for cycle= 117      0.09 sec, wall time      0.02 sec
diis-norm(errvec)=8.04195e-14
Linear dependence found in DIIS error vectors.
diis-c [-2.89052492e-16  1.25000000e-01  1.25000000e-01  1.25000000e-01
  1.25000000e-01  1.25000000e-01  1.25000000e-01  1.25000000e-01
  1.25000000e-01]
alpha HOMO (B1u) = -1.33003431528609  LUMO (Ag) = -0.128052556597868
alpha irrep_nelec = [2, 0, 0, 0, 0, 1, 1, 1]
beta  irrep_nelec = [2, 0, 0, 0, 0, 0, 0, 0]
alpha-Ag nocc = 2  HOMO = -2.07225802323031  LUMO = -0.128052556597868
   mo_energy = [-2.14120324e+01 -2.07225802e+00 -1.28052557e-01  2.84238972e-01
  2.84238972e-01  6.44670328e-01  1.55839320e+00  1.55839320e+00
  4.49510615e+00  6.22191431e+00  6.22191431e+00  2.72785018e+01
  4.30990767e+01  4.30990767e+01  1.47582756e+02]
alpha-B1g nocc = 0
   mo_energy = [ 0.28423897  1.5583932   6.22191431 43.09907673]
alpha-B2g nocc = 0
   mo_energy = [ 0.28423897  1.5583932   6.22191431 43.09907673]
alpha-B3g nocc = 0
   mo_energy = [ 0.28423897  1.5583932   6.22191431 43.09907673]
alpha-Au nocc = 0
   mo_energy = [1.58224206 5.79047405]
alpha-B1u nocc = 1  HOMO = -1.33003431528609  LUMO = -0.0775822166484281
   mo_energy = [-1.33003432e+00 -7.75822166e-02  4.66466065e-01  1.58224206e+00
  1.58224206e+00  3.34309985e+00  5.79047405e+00  5.79047405e+00
  2.52100647e+01  1.37445326e+02]
alpha-B2u nocc = 1  HOMO = -1.33003431528609  LUMO = -0.077582216648429
   mo_energy = [-1.33003432e+00 -7.75822166e-02  4.66466065e-01  1.58224206e+00
  1.58224206e+00  3.34309985e+00  5.79047405e+00  5.79047405e+00
  2.52100647e+01  1.37445326e+02]
alpha-B3u nocc = 1  HOMO = -1.33003431528609  LUMO = -0.0775822166484279
   mo_energy = [-1.33003432e+00 -7.75822166e-02  4.66466065e-01  1.58224206e+00
  1.58224206e+00  3.34309985e+00  5.79047405e+00  5.79047405e+00
  2.52100647e+01  1.37445326e+02]
beta-Ag nocc = 2  HOMO = -1.53176618369128  LUMO = -0.108463217686619
   mo_energy = [-2.12792368e+01 -1.53176618e+00 -1.08463218e-01  3.14652716e-01
  3.14652716e-01  7.28856556e-01  1.71450111e+00  1.71450111e+00
  4.64802184e+00  6.44778714e+00  6.44778714e+00  2.73692126e+01
  4.31968055e+01  4.31968055e+01  1.47607411e+02]
beta-B1g nocc = 0
   mo_energy = [ 0.31465272  1.71450111  6.44778714 43.19680547]
beta-B2g nocc = 0
   mo_energy = [ 0.31465272  1.71450111  6.44778714 43.19680547]
beta-B3g nocc = 0
   mo_energy = [ 0.31465272  1.71450111  6.44778714 43.19680547]
beta-Au nocc = 0
   mo_energy = [1.61367857 5.9083264 ]
beta-B1u nocc = 0
   mo_energy = [-3.82590623e-01 -4.68614134e-02  5.98770502e-01  1.61367857e+00
  1.61367857e+00  3.54954568e+00  5.90832640e+00  5.90832640e+00
  2.53179986e+01  1.37471138e+02]
beta-B2u nocc = 0
   mo_energy = [-3.82590623e-01 -4.68614134e-02  5.98770502e-01  1.61367857e+00
  1.61367857e+00  3.54954568e+00  5.90832640e+00  5.90832640e+00
  2.53179986e+01  1.37471138e+02]
beta-B3u nocc = 0
   mo_energy = [-3.82590623e-01 -4.68614134e-02  5.98770502e-01  1.61367857e+00
  1.61367857e+00  3.54954568e+00  5.90832640e+00  5.90832640e+00
  2.53179986e+01  1.37471138e+02]
multiplicity <S^2> = 3.755554  2S+1 = 4.002776
E1 = -98.45649042724492  Ecoul = 24.085547034807853
cycle= 118 E= -74.3709433924371  delta_E=    0  |g|= 7.42e-14  |ddm|= 5.55e-15
    CPU time for cycle= 118      0.09 sec, wall time      0.02 sec
alpha HOMO (B1u) = -1.33003431528609  LUMO (Ag) = -0.128052556597865
alpha irrep_nelec = [2, 0, 0, 0, 0, 1, 1, 1]
beta  irrep_nelec = [2, 0, 0, 0, 0, 0, 0, 0]
alpha-Ag nocc = 2  HOMO = -2.07225802323031  LUMO = -0.128052556597865
   mo_energy = [-2.14120324e+01 -2.07225802e+00 -1.28052557e-01  2.84238972e-01
  2.84238972e-01  6.44670328e-01  1.55839320e+00  1.55839320e+00
  4.49510615e+00  6.22191431e+00  6.22191431e+00  2.72785018e+01
  4.30990767e+01  4.30990767e+01  1.47582756e+02]
alpha-B1g nocc = 0
   mo_energy = [ 0.28423897  1.5583932   6.22191431 43.09907673]
alpha-B2g nocc = 0
   mo_energy = [ 0.28423897  1.5583932   6.22191431 43.09907673]
alpha-B3g nocc = 0
   mo_energy = [ 0.28423897  1.5583932   6.22191431 43.09907673]
alpha-Au nocc = 0
   mo_energy = [1.58224206 5.79047405]
alpha-B1u nocc = 1  HOMO = -1.33003431528609  LUMO = -0.0775822166484279
   mo_energy = [-1.33003432e+00 -7.75822166e-02  4.66466065e-01  1.58224206e+00
  1.58224206e+00  3.34309985e+00  5.79047405e+00  5.79047405e+00
  2.52100647e+01  1.37445326e+02]
alpha-B2u nocc = 1  HOMO = -1.33003431528609  LUMO = -0.0775822166484292
   mo_energy = [-1.33003432e+00 -7.75822166e-02  4.66466065e-01  1.58224206e+00
  1.58224206e+00  3.34309985e+00  5.79047405e+00  5.79047405e+00
  2.52100647e+01  1.37445326e+02]
alpha-B3u nocc = 1  HOMO = -1.33003431528609  LUMO = -0.0775822166484282
   mo_energy = [-1.33003432e+00 -7.75822166e-02  4.66466065e-01  1.58224206e+00
  1.58224206e+00  3.34309985e+00  5.79047405e+00  5.79047405e+00
  2.52100647e+01  1.37445326e+02]
beta-Ag nocc = 2  HOMO = -1.53176618369127  LUMO = -0.10846321768662
   mo_energy = [-2.12792368e+01 -1.53176618e+00 -1.08463218e-01  3.14652716e-01
  3.14652716e-01  7.28856556e-01  1.71450111e+00  1.71450111e+00
  4.64802184e+00  6.44778714e+00  6.44778714e+00  2.73692126e+01
  4.31968055e+01  4.31968055e+01  1.47607411e+02]
beta-B1g nocc = 0
   mo_energy = [ 0.31465272  1.71450111  6.44778714 43.19680547]
beta-B2g nocc = 0
   mo_energy = [ 0.31465272  1.71450111  6.44778714 43.19680547]
beta-B3g nocc = 0
   mo_energy = [ 0.31465272  1.71450111  6.44778714 43.19680547]
beta-Au nocc = 0
   mo_energy = [1.61367857 5.9083264 ]
beta-B1u nocc = 0
   mo_energy = [-3.82590623e-01 -4.68614134e-02  5.98770502e-01  1.61367857e+00
  1.61367857e+00  3.54954568e+00  5.90832640e+00  5.90832640e+00
  2.53179986e+01  1.37471138e+02]
beta-B2u nocc = 0
   mo_energy = [-3.82590623e-01 -4.68614134e-02  5.98770502e-01  1.61367857e+00
  1.61367857e+00  3.54954568e+00  5.90832640e+00  5.90832640e+00
  2.53179986e+01  1.37471138e+02]
beta-B3u nocc = 0
   mo_energy = [-3.82590623e-01 -4.68614134e-02  5.98770502e-01  1.61367857e+00
  1.61367857e+00  3.54954568e+00  5.90832640e+00  5.90832640e+00
  2.53179986e+01  1.37471138e+02]
multiplicity <S^2> = 3.755554  2S+1 = 4.002776
E1 = -98.45649042724487  Ecoul = 24.08554703480786
Extra cycle  E= -74.370943392437  delta_E= 4.26e-14  |g|= 1.29e-13  |ddm|= 5.55e-15
    CPU time for scf_cycle     11.51 sec, wall time      3.20 sec
    CPU time for SCF     11.53 sec, wall time      3.25 sec
converged SCF energy = -74.370943392437  <S^2> = 3.755554  2S+1 = 4.002776
