#INFO: **** input file is /lustre06/project/6058907/jaafar1/PySCF-MRCC/Oxygen/Neutral/AE/aCVQZ/Lower-Convergence/CC-6/1950/core-36/input.py ****
import pyscf
from pyscf import cc, lib, tools, scf, symm, ao2mo
from pyscf.gto.basis import parse_gaussian
from pyscf.cc.mrcc import MRCCInterface

name = 'out'
mol = pyscf.M(
    atom = '''
        O
    ''',
    unit = 'angstrom',
    basis = {
            'O' : parse_gaussian.load('O-aCVQZ-EMSL.gbs', 'O')
    },
    charge = 0,
    spin = 2,
    symmetry = True,
    verbose = 9,
    symmetry_subgroup = 'D2h',
    output = name +'.txt',
    max_memory = 4000,
)
mf = mol.UHF().set(conv_tol=1e-11,max_cycle=999,ddm_tol=1e-13,direct_scf_tol=1e-13,chkfile=name+'.chk',init_guess='atom',irrep_nelec={'Ag': 4, 'B3u':2 , 'B2u':1 ,'B1u':1 })
mf.kernel()

#pyscf.tools.fcidump.from_chkfile_uhf('FCIdump',name+'.chk',tol=1e-18, float_format='% 0.20E',molpro_orbsym=False,orbsym=None)
pyscf.tools.fcidump.from_scf_uhf(mf,'fort.55',tol=1e-18, float_format='% 0.20E',molpro_orbsym=False)

#MRCCInterface.run_mrcc(mf, fort_file='fort.55', mrcc_input_file='MINP', tol=1e-18, float_format='% 0.20E', molpro_orbsym=False)
#INFO: ******************** input file end ********************


System: uname_result(system='Linux', node='narval1.narval.calcul.quebec', release='4.18.0-553.27.1.el8_10.x86_64', version='#1 SMP Wed Nov 6 14:29:02 UTC 2024', machine='x86_64')  Threads 64
Python 3.12.4 (main, Jun  7 2024, 23:47:47) [GCC 13.3.0]
numpy 2.1.1  scipy 1.14.1  h5py 3.12.0
Date: Mon Jan 27 07:23:12 2025
PySCF version 2.7.0
PySCF path  /lustre06/project/6058907/jaafar1/VENV/MRCCInterface/lib/python3.12/site-packages/pyscf

[CONFIG] ARGPARSE = False
[CONFIG] DEBUG = False
[CONFIG] MAX_MEMORY = 4000
[CONFIG] TMPDIR = /tmp
[CONFIG] UNIT = angstrom
[CONFIG] VERBOSE = 3
[CONFIG] conf_file = None
[INPUT] verbose = 9
[INPUT] max_memory = 4000 
[INPUT] num. atoms = 1
[INPUT] num. electrons = 8
[INPUT] charge = 0
[INPUT] spin (= nelec alpha-beta = 2S) = 2
[INPUT] symmetry True subgroup D2h
[INPUT] Mole.unit = angstrom
[INPUT] Symbol           X                Y                Z      unit          X                Y                Z       unit  Magmom
[INPUT]  1 O      0.000000000000   0.000000000000   0.000000000000 AA    0.000000000000   0.000000000000   0.000000000000 Bohr   0.0
[INPUT] ---------------- BASIS SET ---------------- 
[INPUT] l, kappa, [nprim/nctr], expnt,             c_1 c_2 ...
[INPUT] O
[INPUT] 0    0    [1    /1   ]  93.881               1
[INPUT] 0    0    [1    /1   ]  34.9                 1
[INPUT] 0    0    [12   /2   ]  61420             9e-05 -2e-05
                                9199              0.000698 -0.000159
                                2091              0.003664 -0.000829
                                590.9             0.015218 -0.003508
                                192.3             0.052423 -0.012156
                                69.32             0.145921 -0.036261
                                26.97             0.305258 -0.082992
                                11.1              0.398508 -0.15209
                                4.682             0.21698 -0.115331
                                1.428             0.017594 0.288979
                                0.5547            -0.002502 0.586128
                                0.2067            0.000954 0.277624
[INPUT] 0    0    [1    /1   ]  12.974               1
[INPUT] 0    0    [1    /1   ]  1.428                1
[INPUT] 0    0    [1    /1   ]  0.5547               1
[INPUT] 0    0    [1    /1   ]  0.2067               1
[INPUT] 0    0    [1    /1   ]  0.06959              1
[INPUT] 1    0    [1    /1   ]  126.14               1
[INPUT] 1    0    [1    /1   ]  42.73                1
[INPUT] 1    0    [1    /1   ]  14.475               1
[INPUT] 1    0    [1    /1   ]  1.531                1
[INPUT] 1    0    [6    /1   ]  63.42             0.006044
                                14.66             0.041799
                                4.459             0.161143
                                1.531             0.356731
                                0.5302            0.448309
                                0.175             0.24494
[INPUT] 1    0    [1    /1   ]  0.5302               1
[INPUT] 1    0    [1    /1   ]  0.175                1
[INPUT] 1    0    [1    /1   ]  0.05348              1
[INPUT] 2    0    [1    /1   ]  57.544               1
[INPUT] 2    0    [1    /1   ]  14.927               1
[INPUT] 2    0    [1    /1   ]  3.775                1
[INPUT] 2    0    [1    /1   ]  1.3                  1
[INPUT] 2    0    [1    /1   ]  0.444                1
[INPUT] 2    0    [1    /1   ]  0.154                1
[INPUT] 3    0    [1    /1   ]  26.483               1
[INPUT] 3    0    [1    /1   ]  2.666                1
[INPUT] 3    0    [1    /1   ]  0.859                1
[INPUT] 3    0    [1    /1   ]  0.324                1
[INPUT] 4    0    [1    /1   ]  1.846                1
[INPUT] 4    0    [1    /1   ]  0.714                1

nuclear repulsion = 0
point group symmetry = SO3, use subgroup D2h
symmetry origin: [0. 0. 0.]
symmetry axis x: [1. 0. 0.]
symmetry axis y: [0. 1. 0.]
symmetry axis z: [0. 0. 1.]
num. orbitals of irrep Ag = 27
num. orbitals of irrep B1g = 10
num. orbitals of irrep B2g = 10
num. orbitals of irrep B3g = 10
num. orbitals of irrep Au = 4
num. orbitals of irrep B1u = 16
num. orbitals of irrep B2u = 16
num. orbitals of irrep B3u = 16
number of shells = 28
number of NR pGTOs = 134
number of NR cGTOs = 109
basis = {'O': [[0, [93.881, 1.0]], [0, [34.9, 1.0]], [0, [61420.0, 9e-05, -2e-05], [9199.0, 0.000698, -0.000159], [2091.0, 0.003664, -0.000829], [590.9, 0.015218, -0.003508], [192.3, 0.052423, -0.012156], [69.32, 0.145921, -0.036261], [26.97, 0.305258, -0.082992], [11.1, 0.398508, -0.15209], [4.682, 0.21698, -0.115331], [1.428, 0.017594, 0.288979], [0.5547, -0.002502, 0.586128], [0.2067, 0.000954, 0.277624]], [0, [12.974, 1.0]], [0, [1.428, 1.0]], [0, [0.5547, 1.0]], [0, [0.2067, 1.0]], [0, [0.06959, 1.0]], [1, [126.14, 1.0]], [1, [42.73, 1.0]], [1, [14.475, 1.0]], [1, [1.531, 1.0]], [1, [63.42, 0.006044], [14.66, 0.041799], [4.459, 0.161143], [1.531, 0.356731], [0.5302, 0.448309], [0.175, 0.24494]], [1, [0.5302, 1.0]], [1, [0.175, 1.0]], [1, [0.05348, 1.0]], [2, [57.544, 1.0]], [2, [14.927, 1.0]], [2, [3.775, 1.0]], [2, [1.3, 1.0]], [2, [0.444, 1.0]], [2, [0.154, 1.0]], [3, [26.483, 1.0]], [3, [2.666, 1.0]], [3, [0.859, 1.0]], [3, [0.324, 1.0]], [4, [1.846, 1.0]], [4, [0.714, 1.0]]]}
ecp = {}
bas 0, expnt(s) = [93.881]
bas 1, expnt(s) = [34.9]
bas 2, expnt(s) = [6.142e+04 9.199e+03 2.091e+03 5.909e+02 1.923e+02 6.932e+01 2.697e+01
 1.110e+01 4.682e+00 1.428e+00 5.547e-01 2.067e-01]
bas 3, expnt(s) = [12.974]
bas 4, expnt(s) = [1.428]
bas 5, expnt(s) = [0.5547]
bas 6, expnt(s) = [0.2067]
bas 7, expnt(s) = [0.06959]
bas 8, expnt(s) = [126.14]
bas 9, expnt(s) = [42.73]
bas 10, expnt(s) = [14.475]
bas 11, expnt(s) = [1.531]
bas 12, expnt(s) = [63.42   14.66    4.459   1.531   0.5302  0.175 ]
bas 13, expnt(s) = [0.5302]
bas 14, expnt(s) = [0.175]
bas 15, expnt(s) = [0.05348]
bas 16, expnt(s) = [57.544]
bas 17, expnt(s) = [14.927]
bas 18, expnt(s) = [3.775]
bas 19, expnt(s) = [1.3]
bas 20, expnt(s) = [0.444]
bas 21, expnt(s) = [0.154]
bas 22, expnt(s) = [26.483]
bas 23, expnt(s) = [2.666]
bas 24, expnt(s) = [0.859]
bas 25, expnt(s) = [0.324]
bas 26, expnt(s) = [1.846]
bas 27, expnt(s) = [0.714]
CPU time:         1.24
arg.atm = [[ 8 20  1 23  0  0]]
arg.bas = [[  0   0   1   1   0  24  25   0]
 [  0   0   1   1   0  26  27   0]
 [  0   0  12   2   0  28  40   0]
 [  0   0   1   1   0  64  65   0]
 [  0   0   1   1   0  66  67   0]
 [  0   0   1   1   0  68  69   0]
 [  0   0   1   1   0  70  71   0]
 [  0   0   1   1   0  72  73   0]
 [  0   1   1   1   0  74  75   0]
 [  0   1   1   1   0  76  77   0]
 [  0   1   1   1   0  78  79   0]
 [  0   1   1   1   0  80  81   0]
 [  0   1   6   1   0  82  88   0]
 [  0   1   1   1   0  94  95   0]
 [  0   1   1   1   0  96  97   0]
 [  0   1   1   1   0  98  99   0]
 [  0   2   1   1   0 100 101   0]
 [  0   2   1   1   0 102 103   0]
 [  0   2   1   1   0 104 105   0]
 [  0   2   1   1   0 106 107   0]
 [  0   2   1   1   0 108 109   0]
 [  0   2   1   1   0 110 111   0]
 [  0   3   1   1   0 112 113   0]
 [  0   3   1   1   0 114 115   0]
 [  0   3   1   1   0 116 117   0]
 [  0   3   1   1   0 118 119   0]
 [  0   4   1   1   0 120 121   0]
 [  0   4   1   1   0 122 123   0]]
arg.env = [ 0.00000000e+00  0.00000000e+00  0.00000000e+00  0.00000000e+00
  0.00000000e+00  0.00000000e+00  0.00000000e+00  0.00000000e+00
  0.00000000e+00  0.00000000e+00  0.00000000e+00  0.00000000e+00
  0.00000000e+00  0.00000000e+00  0.00000000e+00  0.00000000e+00
  0.00000000e+00  0.00000000e+00  0.00000000e+00  0.00000000e+00
  0.00000000e+00  0.00000000e+00  0.00000000e+00  0.00000000e+00
  9.38810000e+01  7.61988303e+01  3.49000000e+01  3.62772280e+01
  6.14200000e+04  9.19900000e+03  2.09100000e+03  5.90900000e+02
  1.92300000e+02  6.93200000e+01  2.69700000e+01  1.11000000e+01
  4.68200000e+00  1.42800000e+00  5.54700000e-01  2.06700000e-01
  8.87135990e-01  1.65644194e+00  2.86243952e+00  4.60795684e+00
  6.83945763e+00  8.85680418e+00  9.12731616e+00  6.12272295e+00
  1.74485198e+00  5.80665567e-02 -4.06299474e-03  7.38871750e-04
 -1.97141210e-01 -3.77326799e-01 -6.47642168e-01 -1.06220940e+00
 -1.58595265e+00 -2.20089212e+00 -2.48148699e+00 -2.33672689e+00
 -9.27437554e-01  9.53734520e-01  9.51811956e-01  2.15019292e-01
  1.29740000e+01  1.72711177e+01  1.42800000e+00  3.30035897e+00
  5.54700000e-01  1.62389763e+00  2.06700000e-01  7.74498145e-01
  6.95900000e-02  3.42314386e-01  1.26140000e+02  1.23324802e+03
  4.27300000e+01  3.18713536e+02  1.44750000e+01  8.23678269e+01
  1.53100000e+00  4.96824931e+00  6.34200000e+01  1.46600000e+01
  4.45900000e+00  1.53100000e+00  5.30200000e-01  1.75000000e-01
  3.15566852e+00  3.49798127e+00  3.04608775e+00  1.77232745e+00
  5.91713172e-01  8.08800478e-02  5.30200000e-01  1.31987878e+00
  1.75000000e-01  3.30203714e-01  5.34800000e-02  7.50280468e-02
  5.75440000e+01  3.13710799e+03  1.49270000e+01  2.95788523e+02
  3.77500000e+00  2.66768200e+01  1.30000000e+00  4.12981172e+00
  4.44000000e-01  6.30158188e-01  1.54000000e-01  9.87849189e-02
  2.64830000e+01  3.13824263e+03  2.66600000e+00  1.79141286e+01
  8.59000000e-01  1.40118339e+00  3.24000000e-01  1.56220000e-01
  1.84600000e+00  7.09669709e+00  7.14000000e-01  5.20701927e-01]
ecpbas  = []


******** <class 'pyscf.scf.uhf_symm.SymAdaptedUHF'> ********
method = SymAdaptedUHF
initial guess = atom
damping factor = 0
level_shift factor = 0
DIIS = <class 'pyscf.scf.diis.CDIIS'>
diis_start_cycle = 1
diis_space = 8
diis_damp = 0
SCF conv_tol = 1e-11
SCF conv_tol_grad = None
SCF ddm_tol = 1e-13
SCF max_cycles = 999
direct_scf = True
direct_scf_tol = 1e-13
chkfile to save SCF result = out.chk
max_memory 4000 MB (current use 90 MB)
number electrons alpha = 5  beta = 3
irrep_nelec {'Ag': 4, 'B3u': 2, 'B2u': 1, 'B1u': 1}
Freeze 8 electrons in irreps ['Ag', 'B3u', 'B2u', 'B1u']
    0 free electrons in irreps B1g B2g B3g Au
cond(S) = 155077.68801121984
Set gradient conv threshold to 3.16228e-06
Spherically averaged atomic HF for {'O'}


******** <class 'pyscf.scf.atom_hf.AtomSphAverageRHF'> ********
method = AtomSphAverageRHF
initial guess = minao
damping factor = 0
level_shift factor = 0
DIIS = <class 'pyscf.scf.diis.CDIIS'>
diis_start_cycle = 1
diis_space = 8
diis_damp = 0
SCF conv_tol = 1e-09
SCF conv_tol_grad = None
SCF ddm_tol = 1e-10
SCF max_cycles = 50
direct_scf = True
direct_scf_tol = 1e-13
chkfile to save SCF result = /tmp/tmp_dpmqc0x
max_memory 4000 MB (current use 90 MB)
atom = O
Set gradient conv threshold to 3.16228e-05
Initial guess from minao.
Nelec from initial guess = 7.999907064959527
E1 = -103.09138659197883  E_coul = 28.805592907560882
init E= -74.285793684418
l = 0  e_0 = -20.7014369
l = 0  e_1 = -1.2631256
l = 0  e_2 = 0.138604803
l = 0  e_3 = 0.88259461
l = 0  e_4 = 3.7392987
l = 0  e_5 = 16.3510571
l = 0  e_6 = 62.9468463
l = 0  e_7 = 215.55668
l = 0  e_8 = 894.392837
l = 1  e_0 = -0.390880622
l = 1  e_1 = 0.139806964
l = 1  e_2 = 0.715036275
l = 1  e_3 = 2.69712405
l = 1  e_4 = 9.25535098
l = 1  e_5 = 33.0697731
l = 1  e_6 = 116.44344
l = 1  e_7 = 395.043869
l = 2  e_0 = 0.471000012
l = 2  e_1 = 1.51758772
l = 2  e_2 = 4.28849052
l = 2  e_3 = 12.5550778
l = 2  e_4 = 46.9566322
l = 2  e_5 = 198.478147
l = 3  e_0 = 1.32440765
l = 3  e_1 = 4.01247612
l = 3  e_2 = 11.7733975
l = 3  e_3 = 103.240571
l = 4  e_0 = 3.61914447
l = 4  e_1 = 10.546233
    CPU time for initialize scf     68.43 sec, wall time     11.71 sec
l = 0  e_0 = -20.7014369
l = 0  e_1 = -1.2631256
l = 0  e_2 = 0.138604803
l = 0  e_3 = 0.88259461
l = 0  e_4 = 3.7392987
l = 0  e_5 = 16.3510571
l = 0  e_6 = 62.9468463
l = 0  e_7 = 215.55668
l = 0  e_8 = 894.392837
l = 1  e_0 = -0.390880622
l = 1  e_1 = 0.139806964
l = 1  e_2 = 0.715036275
l = 1  e_3 = 2.69712405
l = 1  e_4 = 9.25535098
l = 1  e_5 = 33.0697731
l = 1  e_6 = 116.44344
l = 1  e_7 = 395.043869
l = 2  e_0 = 0.471000012
l = 2  e_1 = 1.51758772
l = 2  e_2 = 4.28849052
l = 2  e_3 = 12.5550778
l = 2  e_4 = 46.9566322
l = 2  e_5 = 198.478147
l = 3  e_0 = 1.32440765
l = 3  e_1 = 4.01247612
l = 3  e_2 = 11.7733975
l = 3  e_3 = 103.240571
l = 4  e_0 = 3.61914447
l = 4  e_1 = 10.546233
l = 0  occ = 2 + 0
l = 1  occ = 0 + 1.333
l = 2  occ = 0 + 0
l = 3  occ = 0 + 0
E1 = -102.38223433047898  E_coul = 28.087487153835887
cycle= 1 E= -74.2947471766431  delta_E= -0.00895  |g|=    0  |ddm|= 0.206
    CPU time for cycle= 1      2.24 sec, wall time      0.30 sec
diis-norm(errvec)=0.136149
diis-c [-0.01853644  1.        ]
l = 0  e_0 = -20.8772416
l = 0  e_1 = -1.33290896
l = 0  e_2 = 0.133444799
l = 0  e_3 = 0.859480511
l = 0  e_4 = 3.67555856
l = 0  e_5 = 16.2253462
l = 0  e_6 = 62.7819541
l = 0  e_7 = 215.370757
l = 0  e_8 = 894.189683
l = 1  e_0 = -0.447326918
l = 1  e_1 = 0.137409881
l = 1  e_2 = 0.696744567
l = 1  e_3 = 2.64119234
l = 1  e_4 = 9.14842189
l = 1  e_5 = 32.9167787
l = 1  e_6 = 116.265071
l = 1  e_7 = 394.849944
l = 2  e_0 = 0.465875948
l = 2  e_1 = 1.49224517
l = 2  e_2 = 4.22872349
l = 2  e_3 = 12.4464527
l = 2  e_4 = 46.79731
l = 2  e_5 = 198.293656
l = 3  e_0 = 1.31659296
l = 3  e_1 = 3.97702324
l = 3  e_2 = 11.6840778
l = 3  e_3 = 103.066798
l = 4  e_0 = 3.60051914
l = 4  e_1 = 10.4837403
l = 0  occ = 2 + 0
l = 1  occ = 0 + 1.333
l = 2  occ = 0 + 0
l = 3  occ = 0 + 0
E1 = -102.7533126748306  E_coul = 28.457301039112302
cycle= 2 E= -74.2960116357183  delta_E= -0.00126  |g|=    0  |ddm|= 0.0635
    CPU time for cycle= 2      4.21 sec, wall time      0.79 sec
diis-norm(errvec)=0.0591743
diis-c [-3.10419129e-04  2.94998531e-01  7.05001469e-01]
l = 0  e_0 = -20.8121807
l = 0  e_1 = -1.31042459
l = 0  e_2 = 0.135111728
l = 0  e_3 = 0.866697309
l = 0  e_4 = 3.69757806
l = 0  e_5 = 16.2711196
l = 0  e_6 = 62.8429618
l = 0  e_7 = 215.43978
l = 0  e_8 = 894.263629
l = 1  e_0 = -0.425800922
l = 1  e_1 = 0.138389421
l = 1  e_2 = 0.703774841
l = 1  e_3 = 2.66204697
l = 1  e_4 = 9.18793134
l = 1  e_5 = 32.9731303
l = 1  e_6 = 116.331053
l = 1  e_7 = 394.921604
l = 2  e_0 = 0.467735054
l = 2  e_1 = 1.50138735
l = 2  e_2 = 4.25064659
l = 2  e_3 = 12.4866137
l = 2  e_4 = 46.8563202
l = 2  e_5 = 198.362236
l = 3  e_0 = 1.3193848
l = 3  e_1 = 3.9897652
l = 3  e_2 = 11.7169251
l = 3  e_3 = 103.13119
l = 4  e_0 = 3.60708511
l = 4  e_1 = 10.5064423
l = 0  occ = 2 + 0
l = 1  occ = 0 + 1.333
l = 2  occ = 0 + 0
l = 3  occ = 0 + 0
E1 = -102.62068408376659  E_coul = 28.324284982377215
cycle= 3 E= -74.2963991013894  delta_E= -0.000387  |g|=    0  |ddm|= 0.0275
    CPU time for cycle= 3      3.67 sec, wall time      0.60 sec
diis-norm(errvec)=0.00673045
diis-c [-1.64456573e-06 -9.78006536e-02 -1.08066081e-01  1.20586673e+00]
l = 0  e_0 = -20.8155948
l = 0  e_1 = -1.31258965
l = 0  e_2 = 0.134938651
l = 0  e_3 = 0.865965911
l = 0  e_4 = 3.69602466
l = 0  e_5 = 16.2684728
l = 0  e_6 = 62.8397257
l = 0  e_7 = 215.436575
l = 0  e_8 = 894.260825
l = 1  e_0 = -0.426727481
l = 1  e_1 = 0.138358872
l = 1  e_2 = 0.703457323
l = 1  e_3 = 2.66102624
l = 1  e_4 = 9.18584689
l = 1  e_5 = 32.9700635
l = 1  e_6 = 116.32769
l = 1  e_7 = 394.918507
l = 2  e_0 = 0.467616955
l = 2  e_1 = 1.50086667
l = 2  e_2 = 4.24947446
l = 2  e_3 = 12.4844813
l = 2  e_4 = 46.8530946
l = 2  e_5 = 198.358842
l = 3  e_0 = 1.3192053
l = 3  e_1 = 3.98903503
l = 3  e_2 = 11.715184
l = 3  e_3 = 103.127643
l = 4  e_0 = 3.60666667
l = 4  e_1 = 10.5052062
l = 0  occ = 2 + 0
l = 1  occ = 0 + 1.333
l = 2  occ = 0 + 0
l = 3  occ = 0 + 0
E1 = -102.62858831739456  E_coul = 28.332184802363937
cycle= 4 E= -74.2964035150306  delta_E= -4.41e-06  |g|=    0  |ddm|= 0.00419
    CPU time for cycle= 4      0.66 sec, wall time      0.10 sec
diis-norm(errvec)=0.000239968
diis-c [-4.05985553e-09  1.60916832e-03  2.30207046e-03 -5.18287191e-02
  1.04791748e+00]
l = 0  e_0 = -20.8157237
l = 0  e_1 = -1.31267863
l = 0  e_2 = 0.134919967
l = 0  e_3 = 0.865920716
l = 0  e_4 = 3.6959419
l = 0  e_5 = 16.2683566
l = 0  e_6 = 62.8395998
l = 0  e_7 = 215.436464
l = 0  e_8 = 894.260748
l = 1  e_0 = -0.426777847
l = 1  e_1 = 0.138352676
l = 1  e_2 = 0.703426477
l = 1  e_3 = 2.66096124
l = 1  e_4 = 9.1857473
l = 1  e_5 = 32.9699397
l = 1  e_6 = 116.327566
l = 1  e_7 = 394.918407
l = 2  e_0 = 0.467600508
l = 2  e_1 = 1.50082689
l = 2  e_2 = 4.24940162
l = 2  e_3 = 12.4843776
l = 2  e_4 = 46.8529646
l = 2  e_5 = 198.35872
l = 3  e_0 = 1.31918156
l = 3  e_1 = 3.98897898
l = 3  e_2 = 11.7150906
l = 3  e_3 = 103.127506
l = 4  e_0 = 3.60662453
l = 4  e_1 = 10.5051281
l = 0  occ = 2 + 0
l = 1  occ = 0 + 1.333
l = 2  occ = 0 + 0
l = 3  occ = 0 + 0
E1 = -102.62888192982243  E_coul = 28.332478407638295
cycle= 5 E= -74.2964035221841  delta_E= -7.15e-09  |g|=    0  |ddm|= 0.000127
    CPU time for cycle= 5      4.78 sec, wall time      0.80 sec
diis-norm(errvec)=1.15364e-05
diis-c [-1.30088929e-11 -1.07599563e-04 -2.56426772e-04  7.33418591e-03
 -2.06163308e-01  1.19919315e+00]
l = 0  e_0 = -20.8157245
l = 0  e_1 = -1.31268153
l = 0  e_2 = 0.134918218
l = 0  e_3 = 0.865918907
l = 0  e_4 = 3.69593961
l = 0  e_5 = 16.2683553
l = 0  e_6 = 62.8395988
l = 0  e_7 = 215.436463
l = 0  e_8 = 894.260746
l = 1  e_0 = -0.426779551
l = 1  e_1 = 0.138352157
l = 1  e_2 = 0.703424548
l = 1  e_3 = 2.66095893
l = 1  e_4 = 9.18574561
l = 1  e_5 = 32.9699387
l = 1  e_6 = 116.327565
l = 1  e_7 = 394.918406
l = 2  e_0 = 0.467598642
l = 2  e_1 = 1.50082467
l = 2  e_2 = 4.24939902
l = 2  e_3 = 12.4843762
l = 2  e_4 = 46.8529638
l = 2  e_5 = 198.358719
l = 3  e_0 = 1.31917907
l = 3  e_1 = 3.98897593
l = 3  e_2 = 11.7150888
l = 3  e_3 = 103.127505
l = 4  e_0 = 3.60662111
l = 4  e_1 = 10.5051255
l = 0  occ = 2 + 0
l = 1  occ = 0 + 1.333
l = 2  occ = 0 + 0
l = 3  occ = 0 + 0
E1 = -102.62886809085526  E_coul = 28.33246456859999
cycle= 6 E= -74.2964035222553  delta_E= -7.11e-11  |g|=    0  |ddm|= 9.76e-06
    CPU time for cycle= 6      4.10 sec, wall time      0.70 sec
diis-norm(errvec)=1.4939e-06
diis-c [-1.17830120e-13 -4.85916056e-06  1.44365636e-05 -8.85545978e-05
  2.47055248e-03 -4.59432297e-02  1.04355165e+00]
l = 0  e_0 = -20.8157257
l = 0  e_1 = -1.31268226
l = 0  e_2 = 0.134918095
l = 0  e_3 = 0.865918592
l = 0  e_4 = 3.6959389
l = 0  e_5 = 16.2683542
l = 0  e_6 = 62.8395976
l = 0  e_7 = 215.436462
l = 0  e_8 = 894.260745
l = 1  e_0 = -0.426780159
l = 1  e_1 = 0.138352111
l = 1  e_2 = 0.703424276
l = 1  e_3 = 2.6609583
l = 1  e_4 = 9.18574464
l = 1  e_5 = 32.9699376
l = 1  e_6 = 116.327564
l = 1  e_7 = 394.918405
l = 2  e_0 = 0.467598502
l = 2  e_1 = 1.50082429
l = 2  e_2 = 4.24939831
l = 2  e_3 = 12.4843752
l = 2  e_4 = 46.8529626
l = 2  e_5 = 198.358718
l = 3  e_0 = 1.31917887
l = 3  e_1 = 3.9889754
l = 3  e_2 = 11.7150878
l = 3  e_3 = 103.127504
l = 4  e_0 = 3.60662073
l = 4  e_1 = 10.5051247
l = 0  occ = 2 + 0
l = 1  occ = 0 + 1.333
l = 2  occ = 0 + 0
l = 3  occ = 0 + 0
E1 = -102.62887027554137  E_coul = 28.332466753285626
cycle= 7 E= -74.2964035222557  delta_E= -4.69e-13  |g|=    0  |ddm|= 6.73e-07
    CPU time for cycle= 7      4.59 sec, wall time      0.71 sec
diis-norm(errvec)=5.48283e-08
diis-c [-3.02723358e-16  9.40401700e-07 -4.75767545e-07 -1.21725424e-05
  3.74459516e-04  1.95720095e-03 -1.36626422e-01  1.13430647e+00]
l = 0  e_0 = -20.8157257
l = 0  e_1 = -1.31268228
l = 0  e_2 = 0.134918091
l = 0  e_3 = 0.865918582
l = 0  e_4 = 3.69593888
l = 0  e_5 = 16.2683542
l = 0  e_6 = 62.8395976
l = 0  e_7 = 215.436462
l = 0  e_8 = 894.260745
l = 1  e_0 = -0.426780178
l = 1  e_1 = 0.13835211
l = 1  e_2 = 0.703424268
l = 1  e_3 = 2.66095828
l = 1  e_4 = 9.18574461
l = 1  e_5 = 32.9699375
l = 1  e_6 = 116.327564
l = 1  e_7 = 394.918405
l = 2  e_0 = 0.467598497
l = 2  e_1 = 1.50082428
l = 2  e_2 = 4.24939828
l = 2  e_3 = 12.4843752
l = 2  e_4 = 46.8529626
l = 2  e_5 = 198.358717
l = 3  e_0 = 1.31917886
l = 3  e_1 = 3.98897538
l = 3  e_2 = 11.7150878
l = 3  e_3 = 103.127504
l = 4  e_0 = 3.60662072
l = 4  e_1 = 10.5051247
l = 0  occ = 2 + 0
l = 1  occ = 0 + 1.333
l = 2  occ = 0 + 0
l = 3  occ = 0 + 0
E1 = -102.62887030280726  E_coul = 28.33246678055173
cycle= 8 E= -74.2964035222555  delta_E= 2.13e-13  |g|=    0  |ddm|= 6.13e-08
    CPU time for cycle= 8      9.31 sec, wall time      1.60 sec
diis-norm(errvec)=1.44859e-09
Linear dependence found in DIIS error vectors.
diis-c [-1.02796251e-15  3.95011828e-07 -8.67446912e-08 -6.66343828e-06
  2.01310779e-04  4.61211040e-04 -5.30648713e-02  4.88891267e-01
  5.63517438e-01]
l = 0  e_0 = -20.8157257
l = 0  e_1 = -1.31268228
l = 0  e_2 = 0.134918092
l = 0  e_3 = 0.865918582
l = 0  e_4 = 3.69593888
l = 0  e_5 = 16.2683542
l = 0  e_6 = 62.8395976
l = 0  e_7 = 215.436462
l = 0  e_8 = 894.260745
l = 1  e_0 = -0.426780178
l = 1  e_1 = 0.13835211
l = 1  e_2 = 0.703424268
l = 1  e_3 = 2.66095828
l = 1  e_4 = 9.18574461
l = 1  e_5 = 32.9699375
l = 1  e_6 = 116.327564
l = 1  e_7 = 394.918405
l = 2  e_0 = 0.467598497
l = 2  e_1 = 1.50082428
l = 2  e_2 = 4.24939828
l = 2  e_3 = 12.4843752
l = 2  e_4 = 46.8529626
l = 2  e_5 = 198.358717
l = 3  e_0 = 1.31917886
l = 3  e_1 = 3.98897538
l = 3  e_2 = 11.7150878
l = 3  e_3 = 103.127504
l = 4  e_0 = 3.60662072
l = 4  e_1 = 10.5051247
l = 0  occ = 2 + 0
l = 1  occ = 0 + 1.333
l = 2  occ = 0 + 0
l = 3  occ = 0 + 0
E1 = -102.62887030244454  E_coul = 28.33246678018884
cycle= 9 E= -74.2964035222557  delta_E= -1.71e-13  |g|=    0  |ddm|= 3.39e-10
    CPU time for cycle= 9      4.65 sec, wall time      0.71 sec
diis-norm(errvec)=9.10408e-10
Linear dependence found in DIIS error vectors.
diis-c [-8.30750377e-16  3.61791629e-01 -4.95340236e-07  1.99530587e-06
  2.90765272e-05  9.31293380e-04 -3.88506454e-02  3.14454256e-01
  3.61642890e-01]
l = 0  e_0 = -20.8157257
l = 0  e_1 = -1.31268228
l = 0  e_2 = 0.134918092
l = 0  e_3 = 0.865918582
l = 0  e_4 = 3.69593888
l = 0  e_5 = 16.2683542
l = 0  e_6 = 62.8395976
l = 0  e_7 = 215.436462
l = 0  e_8 = 894.260745
l = 1  e_0 = -0.426780178
l = 1  e_1 = 0.13835211
l = 1  e_2 = 0.703424268
l = 1  e_3 = 2.66095828
l = 1  e_4 = 9.18574461
l = 1  e_5 = 32.9699375
l = 1  e_6 = 116.327564
l = 1  e_7 = 394.918405
l = 2  e_0 = 0.467598497
l = 2  e_1 = 1.50082428
l = 2  e_2 = 4.24939828
l = 2  e_3 = 12.4843752
l = 2  e_4 = 46.8529626
l = 2  e_5 = 198.358717
l = 3  e_0 = 1.31917886
l = 3  e_1 = 3.98897538
l = 3  e_2 = 11.7150878
l = 3  e_3 = 103.127504
l = 4  e_0 = 3.60662072
l = 4  e_1 = 10.5051247
l = 0  occ = 2 + 0
l = 1  occ = 0 + 1.333
l = 2  occ = 0 + 0
l = 3  occ = 0 + 0
E1 = -102.62887030103981  E_coul = 28.33246677878402
cycle= 10 E= -74.2964035222558  delta_E= -8.53e-14  |g|=    0  |ddm|= 2.96e-10
    CPU time for cycle= 10      4.30 sec, wall time      0.79 sec
diis-norm(errvec)=8.15044e-10
Linear dependence found in DIIS error vectors.
diis-c [-2.25015300e-16  2.59002324e-01  2.59069845e-01 -4.15814846e-06
  1.86652869e-04 -6.34947959e-04 -1.57036114e-02  2.39160698e-01
  2.58923198e-01]
l = 0  e_0 = -20.8157257
l = 0  e_1 = -1.31268228
l = 0  e_2 = 0.134918092
l = 0  e_3 = 0.865918582
l = 0  e_4 = 3.69593888
l = 0  e_5 = 16.2683542
l = 0  e_6 = 62.8395976
l = 0  e_7 = 215.436462
l = 0  e_8 = 894.260745
l = 1  e_0 = -0.426780178
l = 1  e_1 = 0.13835211
l = 1  e_2 = 0.703424268
l = 1  e_3 = 2.66095828
l = 1  e_4 = 9.18574461
l = 1  e_5 = 32.9699375
l = 1  e_6 = 116.327564
l = 1  e_7 = 394.918405
l = 2  e_0 = 0.467598497
l = 2  e_1 = 1.50082428
l = 2  e_2 = 4.24939828
l = 2  e_3 = 12.4843752
l = 2  e_4 = 46.8529626
l = 2  e_5 = 198.358717
l = 3  e_0 = 1.31917886
l = 3  e_1 = 3.98897538
l = 3  e_2 = 11.7150878
l = 3  e_3 = 103.127504
l = 4  e_0 = 3.60662072
l = 4  e_1 = 10.5051247
l = 0  occ = 2 + 0
l = 1  occ = 0 + 1.333
l = 2  occ = 0 + 0
l = 3  occ = 0 + 0
E1 = -102.6288703013702  E_coul = 28.332466779114778
cycle= 11 E= -74.2964035222554  delta_E= 3.69e-13  |g|=    0  |ddm|= 5.64e-10
    CPU time for cycle= 11      4.55 sec, wall time      0.71 sec
diis-norm(errvec)=9.95462e-10
Linear dependence found in DIIS error vectors.
diis-c [-8.43509098e-16  2.04724707e-01  2.04730094e-01  2.04701145e-01
  4.45013101e-05 -1.08954943e-06 -1.13063831e-02  1.92411317e-01
  2.04695708e-01]
l = 0  e_0 = -20.8157257
l = 0  e_1 = -1.31268228
l = 0  e_2 = 0.134918092
l = 0  e_3 = 0.865918582
l = 0  e_4 = 3.69593888
l = 0  e_5 = 16.2683542
l = 0  e_6 = 62.8395976
l = 0  e_7 = 215.436462
l = 0  e_8 = 894.260745
l = 1  e_0 = -0.426780178
l = 1  e_1 = 0.13835211
l = 1  e_2 = 0.703424268
l = 1  e_3 = 2.66095828
l = 1  e_4 = 9.18574461
l = 1  e_5 = 32.9699375
l = 1  e_6 = 116.327564
l = 1  e_7 = 394.918405
l = 2  e_0 = 0.467598498
l = 2  e_1 = 1.50082428
l = 2  e_2 = 4.24939828
l = 2  e_3 = 12.4843752
l = 2  e_4 = 46.8529626
l = 2  e_5 = 198.358717
l = 3  e_0 = 1.31917886
l = 3  e_1 = 3.98897538
l = 3  e_2 = 11.7150878
l = 3  e_3 = 103.127504
l = 4  e_0 = 3.60662072
l = 4  e_1 = 10.5051247
l = 0  occ = 2 + 0
l = 1  occ = 0 + 1.333
l = 2  occ = 0 + 0
l = 3  occ = 0 + 0
E1 = -102.62887029917547  E_coul = 28.33246677691985
cycle= 12 E= -74.2964035222556  delta_E= -1.99e-13  |g|=    0  |ddm|= 7.17e-10
    CPU time for cycle= 12      4.52 sec, wall time      0.80 sec
diis-norm(errvec)=2.08978e-09
Linear dependence found in DIIS error vectors.
diis-c [-7.78753072e-16  1.68246460e-01  1.68175188e-01  1.68174028e-01
  1.68024288e-01  1.16883200e-04 -4.80948454e-03  1.63800048e-01
  1.68272589e-01]
l = 0  e_0 = -20.8157257
l = 0  e_1 = -1.31268228
l = 0  e_2 = 0.134918092
l = 0  e_3 = 0.865918582
l = 0  e_4 = 3.69593888
l = 0  e_5 = 16.2683542
l = 0  e_6 = 62.8395976
l = 0  e_7 = 215.436462
l = 0  e_8 = 894.260745
l = 1  e_0 = -0.426780177
l = 1  e_1 = 0.13835211
l = 1  e_2 = 0.703424268
l = 1  e_3 = 2.66095828
l = 1  e_4 = 9.18574461
l = 1  e_5 = 32.9699375
l = 1  e_6 = 116.327564
l = 1  e_7 = 394.918405
l = 2  e_0 = 0.467598498
l = 2  e_1 = 1.50082428
l = 2  e_2 = 4.24939828
l = 2  e_3 = 12.4843752
l = 2  e_4 = 46.8529626
l = 2  e_5 = 198.358717
l = 3  e_0 = 1.31917886
l = 3  e_1 = 3.98897538
l = 3  e_2 = 11.7150878
l = 3  e_3 = 103.127504
l = 4  e_0 = 3.60662072
l = 4  e_1 = 10.5051247
l = 0  occ = 2 + 0
l = 1  occ = 0 + 1.333
l = 2  occ = 0 + 0
l = 3  occ = 0 + 0
E1 = -102.6288702999219  E_coul = 28.332466777666294
cycle= 13 E= -74.2964035222556  delta_E= 1.42e-14  |g|=    0  |ddm|= 6.33e-10
    CPU time for cycle= 13      4.06 sec, wall time      0.61 sec
diis-norm(errvec)=1.76976e-09
Linear dependence found in DIIS error vectors.
diis-c [-2.22925554e-17  1.44015341e-01  1.43954671e-01  1.43954333e-01
  1.43828518e-01  1.43881335e-01 -3.94510548e-03  1.40271806e-01
  1.44039101e-01]
l = 0  e_0 = -20.8157257
l = 0  e_1 = -1.31268228
l = 0  e_2 = 0.134918092
l = 0  e_3 = 0.865918582
l = 0  e_4 = 3.69593888
l = 0  e_5 = 16.2683542
l = 0  e_6 = 62.8395976
l = 0  e_7 = 215.436462
l = 0  e_8 = 894.260745
l = 1  e_0 = -0.426780178
l = 1  e_1 = 0.13835211
l = 1  e_2 = 0.703424268
l = 1  e_3 = 2.66095828
l = 1  e_4 = 9.18574461
l = 1  e_5 = 32.9699375
l = 1  e_6 = 116.327564
l = 1  e_7 = 394.918405
l = 2  e_0 = 0.467598497
l = 2  e_1 = 1.50082428
l = 2  e_2 = 4.24939828
l = 2  e_3 = 12.4843752
l = 2  e_4 = 46.8529626
l = 2  e_5 = 198.358717
l = 3  e_0 = 1.31917886
l = 3  e_1 = 3.98897538
l = 3  e_2 = 11.7150878
l = 3  e_3 = 103.127504
l = 4  e_0 = 3.60662072
l = 4  e_1 = 10.5051247
l = 0  occ = 2 + 0
l = 1  occ = 0 + 1.333
l = 2  occ = 0 + 0
l = 3  occ = 0 + 0
E1 = -102.62887030080589  E_coul = 28.3324667785504
cycle= 14 E= -74.2964035222555  delta_E= 1.14e-13  |g|=    0  |ddm|= 3.31e-10
    CPU time for cycle= 14      4.59 sec, wall time      0.80 sec
diis-norm(errvec)=1.30164e-09
Linear dependence found in DIIS error vectors.
diis-c [-4.1157153e-16  1.2500000e-01  1.2500000e-01  1.2500000e-01
  1.2500000e-01  1.2500000e-01  1.2500000e-01  1.2500000e-01
  1.2500000e-01]
l = 0  e_0 = -20.8157257
l = 0  e_1 = -1.31268228
l = 0  e_2 = 0.134918092
l = 0  e_3 = 0.865918582
l = 0  e_4 = 3.69593888
l = 0  e_5 = 16.2683542
l = 0  e_6 = 62.8395976
l = 0  e_7 = 215.436462
l = 0  e_8 = 894.260745
l = 1  e_0 = -0.426780178
l = 1  e_1 = 0.13835211
l = 1  e_2 = 0.703424268
l = 1  e_3 = 2.66095828
l = 1  e_4 = 9.18574461
l = 1  e_5 = 32.9699375
l = 1  e_6 = 116.327564
l = 1  e_7 = 394.918405
l = 2  e_0 = 0.467598497
l = 2  e_1 = 1.50082428
l = 2  e_2 = 4.24939828
l = 2  e_3 = 12.4843752
l = 2  e_4 = 46.8529626
l = 2  e_5 = 198.358717
l = 3  e_0 = 1.31917886
l = 3  e_1 = 3.98897538
l = 3  e_2 = 11.7150878
l = 3  e_3 = 103.127504
l = 4  e_0 = 3.60662072
l = 4  e_1 = 10.5051247
l = 0  occ = 2 + 0
l = 1  occ = 0 + 1.333
l = 2  occ = 0 + 0
l = 3  occ = 0 + 0
E1 = -102.62887030580367  E_coul = 28.332466783548256
cycle= 15 E= -74.2964035222554  delta_E= 7.11e-14  |g|=    0  |ddm|= 1.01e-09
    CPU time for cycle= 15      4.36 sec, wall time      0.70 sec
diis-norm(errvec)=1.80477e-09
Linear dependence found in DIIS error vectors.
diis-c [-2.89052492e-16  1.25000000e-01  1.25000000e-01  1.25000000e-01
  1.25000000e-01  1.25000000e-01  1.25000000e-01  1.25000000e-01
  1.25000000e-01]
l = 0  e_0 = -20.8157257
l = 0  e_1 = -1.31268228
l = 0  e_2 = 0.134918092
l = 0  e_3 = 0.865918582
l = 0  e_4 = 3.69593888
l = 0  e_5 = 16.2683542
l = 0  e_6 = 62.8395976
l = 0  e_7 = 215.436462
l = 0  e_8 = 894.260745
l = 1  e_0 = -0.426780178
l = 1  e_1 = 0.13835211
l = 1  e_2 = 0.703424268
l = 1  e_3 = 2.66095828
l = 1  e_4 = 9.18574461
l = 1  e_5 = 32.9699375
l = 1  e_6 = 116.327564
l = 1  e_7 = 394.918405
l = 2  e_0 = 0.467598497
l = 2  e_1 = 1.50082428
l = 2  e_2 = 4.24939828
l = 2  e_3 = 12.4843752
l = 2  e_4 = 46.8529626
l = 2  e_5 = 198.358717
l = 3  e_0 = 1.31917886
l = 3  e_1 = 3.98897538
l = 3  e_2 = 11.7150878
l = 3  e_3 = 103.127504
l = 4  e_0 = 3.60662072
l = 4  e_1 = 10.5051247
l = 0  occ = 2 + 0
l = 1  occ = 0 + 1.333
l = 2  occ = 0 + 0
l = 3  occ = 0 + 0
E1 = -102.62887030253121  E_coul = 28.33246678027566
cycle= 16 E= -74.2964035222556  delta_E= -1.42e-13  |g|=    0  |ddm|= 7.44e-10
    CPU time for cycle= 16      4.66 sec, wall time      0.80 sec
diis-norm(errvec)=2.25581e-10
Linear dependence found in DIIS error vectors.
diis-c [-2.89052492e-16  1.25000000e-01  1.25000000e-01  1.25000000e-01
  1.25000000e-01  1.25000000e-01  1.25000000e-01  1.25000000e-01
  1.25000000e-01]
l = 0  e_0 = -20.8157257
l = 0  e_1 = -1.31268228
l = 0  e_2 = 0.134918092
l = 0  e_3 = 0.865918582
l = 0  e_4 = 3.69593888
l = 0  e_5 = 16.2683542
l = 0  e_6 = 62.8395976
l = 0  e_7 = 215.436462
l = 0  e_8 = 894.260745
l = 1  e_0 = -0.426780178
l = 1  e_1 = 0.13835211
l = 1  e_2 = 0.703424268
l = 1  e_3 = 2.66095828
l = 1  e_4 = 9.18574461
l = 1  e_5 = 32.9699375
l = 1  e_6 = 116.327564
l = 1  e_7 = 394.918405
l = 2  e_0 = 0.467598497
l = 2  e_1 = 1.50082428
l = 2  e_2 = 4.24939828
l = 2  e_3 = 12.4843752
l = 2  e_4 = 46.8529626
l = 2  e_5 = 198.358717
l = 3  e_0 = 1.31917886
l = 3  e_1 = 3.98897538
l = 3  e_2 = 11.7150878
l = 3  e_3 = 103.127504
l = 4  e_0 = 3.60662072
l = 4  e_1 = 10.5051247
l = 0  occ = 2 + 0
l = 1  occ = 0 + 1.333
l = 2  occ = 0 + 0
l = 3  occ = 0 + 0
E1 = -102.62887030255088  E_coul = 28.332466780295285
cycle= 17 E= -74.2964035222556  delta_E= -2.84e-14  |g|=    0  |ddm|= 1.68e-11
    CPU time for cycle= 17      5.65 sec, wall time      0.99 sec
l = 0  e_0 = -20.8157257
l = 0  e_1 = -1.31268228
l = 0  e_2 = 0.134918092
l = 0  e_3 = 0.865918582
l = 0  e_4 = 3.69593888
l = 0  e_5 = 16.2683542
l = 0  e_6 = 62.8395976
l = 0  e_7 = 215.436462
l = 0  e_8 = 894.260745
l = 1  e_0 = -0.426780178
l = 1  e_1 = 0.13835211
l = 1  e_2 = 0.703424268
l = 1  e_3 = 2.66095828
l = 1  e_4 = 9.18574461
l = 1  e_5 = 32.9699375
l = 1  e_6 = 116.327564
l = 1  e_7 = 394.918405
l = 2  e_0 = 0.467598497
l = 2  e_1 = 1.50082428
l = 2  e_2 = 4.24939828
l = 2  e_3 = 12.4843752
l = 2  e_4 = 46.8529626
l = 2  e_5 = 198.358717
l = 3  e_0 = 1.31917886
l = 3  e_1 = 3.98897538
l = 3  e_2 = 11.7150878
l = 3  e_3 = 103.127504
l = 4  e_0 = 3.60662072
l = 4  e_1 = 10.5051247
l = 0  occ = 2 + 0
l = 1  occ = 0 + 1.333
l = 2  occ = 0 + 0
l = 3  occ = 0 + 0
E1 = -102.62887030198632  E_coul = 28.332466779730588
Extra cycle  E= -74.2964035222557  delta_E= -1.42e-13  |g|=    0  |ddm|= 1.68e-11
    CPU time for scf_cycle    144.93 sec, wall time     24.40 sec
    CPU time for SCF    144.96 sec, wall time     24.40 sec
Atomic HF for atom  O  converged. SCF energy = -74.2964035222557

Atom O, E = -74.2964035223
Nelec from initial guess = (np.float64(3.9999999999999996), np.float64(3.9999999999999996))
E1 = -102.62887030198632  Ecoul = 28.332466779730602
init E= -74.2964035222557
    CPU time for initialize scf    177.47 sec, wall time     29.92 sec
alpha HOMO (B1u) = -0.426780178152409  LUMO (Ag) = 0.134918091544629
alpha irrep_nelec = [2, 0, 0, 0, 0, 1, 1, 1]
beta  irrep_nelec = [2, 0, 0, 0, 0, 0, 0, 1]
alpha-Ag nocc = 2  HOMO = -1.31268228002298  LUMO = 0.134918091544629
   mo_energy = [-2.08157257e+01 -1.31268228e+00  1.34918092e-01  4.67598497e-01
  4.67598497e-01  8.65918582e-01  1.50082428e+00  1.50082428e+00
  3.60662072e+00  3.60662072e+00  3.60662072e+00  3.69593888e+00
  4.24939828e+00  4.24939828e+00  1.05051247e+01  1.05051247e+01
  1.05051247e+01  1.24843752e+01  1.24843752e+01  1.62683542e+01
  4.68529626e+01  4.68529626e+01  6.28395976e+01  1.98358717e+02
  1.98358717e+02  2.15436462e+02  8.94260745e+02]
alpha-B1g nocc = 0
   mo_energy = [  0.4675985    1.50082428   3.60662072   3.60662072   4.24939828
  10.50512472  10.50512472  12.48437519  46.85296261 198.35871747]
alpha-B2g nocc = 0
   mo_energy = [  0.4675985    1.50082428   3.60662072   3.60662072   4.24939828
  10.50512472  10.50512472  12.48437519  46.85296261 198.35871747]
alpha-B3g nocc = 0
   mo_energy = [  0.4675985    1.50082428   3.60662072   3.60662072   4.24939828
  10.50512472  10.50512472  12.48437519  46.85296261 198.35871747]
alpha-Au nocc = 0
   mo_energy = [  1.31917886   3.98897538  11.71508781 103.12750391]
alpha-B1u nocc = 1  HOMO = -0.426780178152409  LUMO = 0.138352109732453
   mo_energy = [-4.26780178e-01  1.38352110e-01  7.03424268e-01  1.31917886e+00
  1.31917886e+00  2.66095828e+00  3.98897538e+00  3.98897538e+00
  9.18574461e+00  1.17150878e+01  1.17150878e+01  3.29699375e+01
  1.03127504e+02  1.03127504e+02  1.16327564e+02  3.94918405e+02]
alpha-B2u nocc = 1  HOMO = -0.426780178152409  LUMO = 0.13835210973246
   mo_energy = [-4.26780178e-01  1.38352110e-01  7.03424268e-01  1.31917886e+00
  1.31917886e+00  2.66095828e+00  3.98897538e+00  3.98897538e+00
  9.18574461e+00  1.17150878e+01  1.17150878e+01  3.29699375e+01
  1.03127504e+02  1.03127504e+02  1.16327564e+02  3.94918405e+02]
alpha-B3u nocc = 1  HOMO = -0.426780178152411  LUMO = 0.138352109732442
   mo_energy = [-4.26780178e-01  1.38352110e-01  7.03424268e-01  1.31917886e+00
  1.31917886e+00  2.66095828e+00  3.98897538e+00  3.98897538e+00
  9.18574461e+00  1.17150878e+01  1.17150878e+01  3.29699375e+01
  1.03127504e+02  1.03127504e+02  1.16327564e+02  3.94918405e+02]
beta-Ag nocc = 2  HOMO = -1.31268228002298  LUMO = 0.134918091544629
   mo_energy = [-2.08157257e+01 -1.31268228e+00  1.34918092e-01  4.67598497e-01
  4.67598497e-01  8.65918582e-01  1.50082428e+00  1.50082428e+00
  3.60662072e+00  3.60662072e+00  3.60662072e+00  3.69593888e+00
  4.24939828e+00  4.24939828e+00  1.05051247e+01  1.05051247e+01
  1.05051247e+01  1.24843752e+01  1.24843752e+01  1.62683542e+01
  4.68529626e+01  4.68529626e+01  6.28395976e+01  1.98358717e+02
  1.98358717e+02  2.15436462e+02  8.94260745e+02]
beta-B1g nocc = 0
   mo_energy = [  0.4675985    1.50082428   3.60662072   3.60662072   4.24939828
  10.50512472  10.50512472  12.48437519  46.85296261 198.35871747]
beta-B2g nocc = 0
   mo_energy = [  0.4675985    1.50082428   3.60662072   3.60662072   4.24939828
  10.50512472  10.50512472  12.48437519  46.85296261 198.35871747]
beta-B3g nocc = 0
   mo_energy = [  0.4675985    1.50082428   3.60662072   3.60662072   4.24939828
  10.50512472  10.50512472  12.48437519  46.85296261 198.35871747]
beta-Au nocc = 0
   mo_energy = [  1.31917886   3.98897538  11.71508781 103.12750391]
beta-B1u nocc = 0
   mo_energy = [-4.26780178e-01  1.38352110e-01  7.03424268e-01  1.31917886e+00
  1.31917886e+00  2.66095828e+00  3.98897538e+00  3.98897538e+00
  9.18574461e+00  1.17150878e+01  1.17150878e+01  3.29699375e+01
  1.03127504e+02  1.03127504e+02  1.16327564e+02  3.94918405e+02]
beta-B2u nocc = 0
   mo_energy = [-4.26780178e-01  1.38352110e-01  7.03424268e-01  1.31917886e+00
  1.31917886e+00  2.66095828e+00  3.98897538e+00  3.98897538e+00
  9.18574461e+00  1.17150878e+01  1.17150878e+01  3.29699375e+01
  1.03127504e+02  1.03127504e+02  1.16327564e+02  3.94918405e+02]
beta-B3u nocc = 1  HOMO = -0.426780178152411  LUMO = 0.138352109732442
   mo_energy = [-4.26780178e-01  1.38352110e-01  7.03424268e-01  1.31917886e+00
  1.31917886e+00  2.66095828e+00  3.98897538e+00  3.98897538e+00
  9.18574461e+00  1.17150878e+01  1.17150878e+01  3.29699375e+01
  1.03127504e+02  1.03127504e+02  1.16327564e+02  3.94918405e+02]
multiplicity <S^2> = 2  2S+1 = 3
E1 = -102.62887030226122  Ecoul = 27.834672137102835
cycle= 1 E= -74.7941981651584  delta_E= -0.498  |g|= 0.208  |ddm|= 0.605
    CPU time for cycle= 1      5.69 sec, wall time      0.88 sec
diis-norm(errvec)=0.293665
diis-c [-0.08623912  1.        ]
alpha HOMO (B3u) = -0.660263656786459  LUMO (Ag) = 0.127776800854074
alpha irrep_nelec = [2, 0, 0, 0, 0, 1, 1, 1]
beta  irrep_nelec = [2, 0, 0, 0, 0, 0, 0, 1]
alpha-Ag nocc = 2  HOMO = -1.4664235480152  LUMO = 0.127776800854074
   mo_energy = [-2.08480979e+01 -1.46642355e+00  1.27776801e-01  4.50532437e-01
  4.66731400e-01  8.42207473e-01  1.43818969e+00  1.48531296e+00
  3.56773220e+00  3.60399826e+00  3.61625802e+00  3.65877101e+00
  4.15710889e+00  4.23269441e+00  1.04314008e+01  1.04977109e+01
  1.05200128e+01  1.23995351e+01  1.24838607e+01  1.62399853e+01
  4.68031306e+01  4.68636909e+01  6.28280818e+01  1.98340495e+02
  1.98367641e+02  2.15432958e+02  8.94259841e+02]
alpha-B1g nocc = 0
   mo_energy = [  0.46264571   1.47317673   3.58879829   3.61318483   4.21326428
  10.46997602  10.51442758  12.46260978  46.8485491  198.36086289]
alpha-B2g nocc = 0
   mo_energy = [  0.46264571   1.47317673   3.58879829   3.61318483   4.21326428
  10.46997602  10.51442758  12.46260978  46.8485491  198.36086289]
alpha-B3g nocc = 0
   mo_energy = [  0.45053244   1.43818969   3.5677322    3.60399826   4.15710889
  10.43140079  10.49771092  12.39953513  46.8031306  198.34049468]
alpha-Au nocc = 0
   mo_energy = [  1.31123471   3.96344413  11.67961231 103.11557481]
alpha-B1u nocc = 1  HOMO = -0.738212669927188  LUMO = 0.130376032783957
   mo_energy = [-7.38212670e-01  1.30376033e-01  6.62850533e-01  1.29649286e+00
  1.32025530e+00  2.59184983e+00  3.92809104e+00  3.98507404e+00
  9.12101288e+00  1.16277066e+01  1.17110949e+01  3.29294070e+01
  1.03086731e+02  1.03132882e+02  1.16308494e+02  3.94911111e+02]
alpha-B2u nocc = 1  HOMO = -0.738212669927203  LUMO = 0.130376032783949
   mo_energy = [-7.38212670e-01  1.30376033e-01  6.62850533e-01  1.29649286e+00
  1.32025530e+00  2.59184983e+00  3.92809104e+00  3.98507404e+00
  9.12101288e+00  1.16277066e+01  1.17110949e+01  3.29294070e+01
  1.03086731e+02  1.03132882e+02  1.16308494e+02  3.94911111e+02]
alpha-B3u nocc = 1  HOMO = -0.660263656786459  LUMO = 0.137607981316106
   mo_energy = [-6.60263657e-01  1.37607981e-01  6.92979688e-01  1.31123471e+00
  1.32329871e+00  2.65356587e+00  3.96344413e+00  3.99236979e+00
  9.19699404e+00  1.16796123e+01  1.17216540e+01  3.29911784e+01
  1.03115575e+02  1.03138651e+02  1.16344972e+02  3.94927530e+02]
beta-Ag nocc = 2  HOMO = -1.16186039822893  LUMO = 0.141554181261638
   mo_energy = [-2.07835741e+01 -1.16186040e+00  1.41554181e-01  4.74987712e-01
  4.77362356e-01  8.89683625e-01  1.53293816e+00  1.54676792e+00
  3.59818605e+00  3.62294447e+00  3.63123218e+00  3.73309945e+00
  4.30013568e+00  4.30976422e+00  1.04941582e+01  1.05369702e+01
  1.05512836e+01  1.25175235e+01  1.25372993e+01  1.62968735e+01
  4.68565225e+01  4.68885171e+01  6.28511707e+01  1.98353053e+02
  1.98373663e+02  2.15439988e+02  8.94261649e+02]
beta-B1g nocc = 0
   mo_energy = [  0.47660388   1.53576467   3.61260563   3.62915917   4.30200653
  10.51910751  10.54770335  12.53226637  46.88051748 198.36851604]
beta-B2g nocc = 0
   mo_energy = [  0.47660388   1.53576467   3.61260563   3.62915917   4.30200653
  10.51910751  10.54770335  12.53226637  46.88051748 198.36851604]
beta-B3g nocc = 0
   mo_energy = [  0.47498771   1.54676792   3.59818605   3.62294447   4.30976422
  10.49415819  10.53697019  12.51752351  46.85652248 198.35305312]
beta-Au nocc = 0
   mo_energy = [  1.3270716    4.01450903  11.75061219 103.13943313]
beta-B1u nocc = 0
   mo_energy = [2.81609109e-02 1.71054501e-01 7.65760407e-01 1.31874887e+00
 1.33214554e+00 2.72528422e+00 3.99948993e+00 4.02361424e+00
 9.22383682e+00 1.17268292e+01 1.17649591e+01 3.29804733e+01
 1.03120105e+02 1.03151029e+02 1.16325916e+02 3.94915645e+02]
beta-B2u nocc = 0
   mo_energy = [2.81609109e-02 1.71054501e-01 7.65760407e-01 1.31874887e+00
 1.33214554e+00 2.72528422e+00 3.99948993e+00 4.02361424e+00
 9.22383682e+00 1.17268292e+01 1.17649591e+01 3.29804733e+01
 1.03120105e+02 1.03151029e+02 1.16325916e+02 3.94915645e+02]
beta-B3u nocc = 1  HOMO = -0.582581178411589  LUMO = 0.14020193441538
   mo_energy = [-5.82581178e-01  1.40201934e-01  7.09864871e-01  1.32707160e+00
  1.33383978e+00  2.68586147e+00  4.01450903e+00  4.02666156e+00
  9.22777812e+00  1.17506122e+01  1.17697549e+01  3.30087137e+01
  1.03139433e+02  1.03154895e+02  1.16351641e+02  3.94929388e+02]
multiplicity <S^2> = 2.0025065  2S+1 = 3.0016706
E1 = -103.37207237401051  Ecoul = 28.557341571512545
cycle= 2 E= -74.814730802498  delta_E= -0.0205  |g|= 0.0787  |ddm|= 0.115
    CPU time for cycle= 2     10.26 sec, wall time      1.70 sec
diis-norm(errvec)=0.111232
diis-c [-0.01201879  0.06457867  0.93542133]
alpha HOMO (B3u) = -0.603089301060222  LUMO (B1u) = 0.132631655582263
alpha irrep_nelec = [2, 0, 0, 0, 0, 1, 1, 1]
beta  irrep_nelec = [2, 0, 0, 0, 0, 0, 0, 1]
alpha-Ag nocc = 2  HOMO = -1.40730669926504  LUMO = 0.134824425101174
   mo_energy = [-2.06834449e+01 -1.40730670e+00  1.34824425e-01  4.59496752e-01
  4.74536269e-01  8.65368393e-01  1.46577984e+00  1.51419932e+00
  3.59039439e+00  3.62577961e+00  3.63775955e+00  3.71914770e+00
  4.21158128e+00  4.29158290e+00  1.04948424e+01  1.05615231e+01
  1.05839686e+01  1.25018970e+01  1.25892180e+01  1.63605425e+01
  4.69551864e+01  4.70174908e+01  6.29853728e+01  1.98513169e+02
  1.98540996e+02  2.15604986e+02  8.94436346e+02]
alpha-B1g nocc = 0
   mo_energy = [  0.47070421   1.50159809   3.61093877   3.63475552   4.27086787
  10.53362298  10.57834651  12.56720295  47.00191029 198.53404726]
alpha-B2g nocc = 0
   mo_energy = [  0.47070421   1.50159809   3.61093877   3.63475552   4.27086787
  10.53362298  10.57834651  12.56720295  47.00191029 198.53404726]
alpha-B3g nocc = 0
   mo_energy = [  0.45949675   1.46577984   3.59039439   3.62577961   4.21158128
  10.49484241  10.56152309  12.50189696  46.95518638 198.51316929]
alpha-Au nocc = 0
   mo_energy = [  1.3220652    4.00122953  11.76687459 103.28228334]
alpha-B1u nocc = 1  HOMO = -0.694805340102791  LUMO = 0.132631655582263
   mo_energy = [-6.94805340e-01  1.32631656e-01  6.78777081e-01  1.30797335e+00
  1.33070537e+00  2.64269852e+00  3.96560283e+00  4.02306059e+00
  9.22172887e+00  1.17136440e+01  1.17991793e+01  3.30747314e+01
  1.03252631e+02  1.03300077e+02  1.16476108e+02  3.95086602e+02]
alpha-B2u nocc = 1  HOMO = -0.694805340102872  LUMO = 0.132631655582278
   mo_energy = [-6.94805340e-01  1.32631656e-01  6.78777081e-01  1.30797335e+00
  1.33070537e+00  2.64269852e+00  3.96560283e+00  4.02306059e+00
  9.22172887e+00  1.17136440e+01  1.17991793e+01  3.30747314e+01
  1.03252631e+02  1.03300077e+02  1.16476108e+02  3.95086602e+02]
alpha-B3u nocc = 1  HOMO = -0.603089301060222  LUMO = 0.139751739149283
   mo_energy = [-6.03089301e-01  1.39751739e-01  7.10621739e-01  1.32206520e+00
  1.33362347e+00  2.70820186e+00  4.00122953e+00  4.03043081e+00
  9.30093180e+00  1.17668746e+01  1.18100178e+01  3.31384438e+01
  1.03282283e+02  1.03306009e+02  1.16513483e+02  3.95103360e+02]
beta-Ag nocc = 2  HOMO = -1.08362615500786  LUMO = 0.146139760742123
   mo_energy = [-2.06123167e+01 -1.08362616e+00  1.46139761e-01  4.78639410e-01
  4.81431018e-01  9.14230317e-01  1.55768240e+00  1.57367753e+00
  3.61901856e+00  3.64227429e+00  3.65004454e+00  3.80223535e+00
  4.36407206e+00  4.38080401e+00  1.05632750e+01  1.06029005e+01
  1.06161479e+01  1.26350000e+01  1.26491753e+01  1.64247806e+01
  4.70152827e+01  4.70455976e+01  6.30110941e+01  1.98527125e+02
  1.98547641e+02  2.15612511e+02  8.94438098e+02]
beta-B1g nocc = 0
   mo_energy = [  0.48050389   1.56074755   3.6325706    3.64810165   4.36745566
  10.58636778  10.61283432  12.64552469  47.03801458 198.54251596]
beta-B2g nocc = 0
   mo_energy = [  0.48050389   1.56074755   3.6325706    3.64810165   4.36745566
  10.58636778  10.61283432  12.64552469  47.03801458 198.54251596]
beta-B3g nocc = 0
   mo_energy = [  0.47863941   1.57367753   3.61901856   3.64227429   4.38080401
  10.563275    10.60290051  12.63499998  47.01528267 198.52712498]
beta-Au nocc = 0
   mo_energy = [  1.33451252   4.05250378  11.8455809  103.30918736]
beta-B1u nocc = 0
   mo_energy = [6.38459784e-02 1.97938508e-01 8.02119391e-01 1.32656632e+00
 1.33935130e+00 2.79387692e+00 4.03948778e+00 4.06038273e+00
 9.33760973e+00 1.18246685e+01 1.18581943e+01 3.31323774e+01
 1.03290121e+02 1.03320629e+02 1.16495461e+02 3.95091393e+02]
beta-B2u nocc = 0
   mo_energy = [6.38459784e-02 1.97938508e-01 8.02119391e-01 1.32656632e+00
 1.33935130e+00 2.79387692e+00 4.03948778e+00 4.06038273e+00
 9.33760973e+00 1.18246685e+01 1.18581943e+01 3.31323774e+01
 1.03290121e+02 1.03320629e+02 1.16495461e+02 3.95091393e+02]
beta-B3u nocc = 1  HOMO = -0.526459540871531  LUMO = 0.142275171365567
   mo_energy = [-5.26459541e-01  1.42275171e-01  7.27810345e-01  1.33451252e+00
  1.34095736e+00  2.74213510e+00  4.05250378e+00  4.06301377e+00
  9.33459719e+00  1.18455809e+01  1.18624103e+01  3.31581028e+01
  1.03309187e+02  1.03324442e+02  1.16520753e+02  3.95105153e+02]
multiplicity <S^2> = 2.0052052  2S+1 = 3.0034681
E1 = -103.2083680740818  Ecoul = 28.39126901859276
cycle= 3 E= -74.8170990554891  delta_E= -0.00237  |g|= 0.0242  |ddm|= 0.0509
    CPU time for cycle= 3      9.73 sec, wall time      1.60 sec
diis-norm(errvec)=0.0341601
diis-c [-6.60382881e-04 -8.31502612e-02 -1.81094612e-02  1.10125972e+00]
alpha HOMO (B3u) = -0.60794606158714  LUMO (B1u) = 0.132467476685397
alpha irrep_nelec = [2, 0, 0, 0, 0, 1, 1, 1]
beta  irrep_nelec = [2, 0, 0, 0, 0, 0, 0, 1]
alpha-Ag nocc = 2  HOMO = -1.41486660874654  LUMO = 0.135658874451286
   mo_energy = [-2.07064683e+01 -1.41486661e+00  1.35658874e-01  4.60686956e-01
  4.75958360e-01  8.65351803e-01  1.46492822e+00  1.51472591e+00
  3.59115550e+00  3.62710858e+00  3.63932720e+00  3.71429454e+00
  4.20543402e+00  4.28671828e+00  1.04916533e+01  1.05578408e+01
  1.05801794e+01  1.24909719e+01  1.25771662e+01  1.63470991e+01
  4.69376608e+01  4.69978230e+01  6.29650755e+01  1.98489103e+02
  1.98515639e+02  2.15578999e+02  8.94405009e+02]
alpha-B1g nocc = 0
   mo_energy = [  0.47202593   1.50165797   3.6120051    3.63626113   4.26558731
  10.53011547  10.57458124  12.55539079  46.98275866 198.50900748]
alpha-B2g nocc = 0
   mo_energy = [  0.47202593   1.50165797   3.6120051    3.63626113   4.26558731
  10.53011547  10.57458124  12.55539079  46.98275866 198.50900748]
alpha-B3g nocc = 0
   mo_energy = [  0.46068696   1.46492822   3.5911555    3.62710858   4.20543402
  10.49165328  10.55784076  12.49097193  46.93766082 198.48910349]
alpha-Au nocc = 0
   mo_energy = [  1.32336119   4.00049658  11.75870722 103.26140991]
alpha-B1u nocc = 1  HOMO = -0.707244379342893  LUMO = 0.132467476685397
   mo_energy = [-7.07244379e-01  1.32467477e-01  6.77004227e-01  1.30894692e+00
  1.33224065e+00  2.63678853e+00  3.96448639e+00  4.02263766e+00
  9.21026036e+00  1.17061303e+01  1.17906767e+01  3.30574347e+01
  1.03233055e+02  1.03278434e+02  1.16453517e+02  3.95058542e+02]
alpha-B2u nocc = 1  HOMO = -0.707244379342881  LUMO = 0.132467476685435
   mo_energy = [-7.07244379e-01  1.32467477e-01  6.77004227e-01  1.30894692e+00
  1.33224065e+00  2.63678853e+00  3.96448639e+00  4.02263766e+00
  9.21026036e+00  1.17061303e+01  1.17906767e+01  3.30574347e+01
  1.03233055e+02  1.03278434e+02  1.16453517e+02  3.95058542e+02]
alpha-B3u nocc = 1  HOMO = -0.60794606158714  LUMO = 0.139927439736581
   mo_energy = [-6.07946062e-01  1.39927440e-01  7.10343274e-01  1.32336119e+00
  1.33524816e+00  2.70391538e+00  4.00049658e+00  4.03012819e+00
  9.28911518e+00  1.17587072e+01  1.18014145e+01  3.31193883e+01
  1.03261410e+02  1.03284111e+02  1.16489332e+02  3.95074479e+02]
beta-Ag nocc = 2  HOMO = -1.07958021002172  LUMO = 0.146492449090751
   mo_energy = [-2.06324578e+01 -1.07958021e+00  1.46492449e-01  4.78374612e-01
  4.81017069e-01  9.15766279e-01  1.55611096e+00  1.57367263e+00
  3.61945474e+00  3.64253728e+00  3.65023335e+00  3.80167600e+00
  4.36181647e+00  4.38011879e+00  1.05623523e+01  1.06002446e+01
  1.06129096e+01  1.26279683e+01  1.26403399e+01  1.64147339e+01
  4.69990819e+01  4.70273672e+01  6.29922535e+01  1.98503515e+02
  1.98522794e+02  2.15587202e+02  8.94407118e+02]
beta-B1g nocc = 0
   mo_energy = [  0.48011393   1.55960163   3.63291347   3.64830994   4.36569019
  10.58443621  10.60974191  12.63717236  47.02028517 198.51797549]
beta-B2g nocc = 0
   mo_energy = [  0.48011393   1.55960163   3.63291347   3.64830994   4.36569019
  10.58443621  10.60974191  12.63717236  47.02028517 198.51797549]
beta-B3g nocc = 0
   mo_energy = [  0.47837461   1.57367263   3.61945474   3.64253728   4.38011879
  10.56235235  10.60024464  12.62796827  46.99908189 198.50351523]
beta-Au nocc = 0
   mo_energy = [  1.33448464   4.05209299  11.84047711 103.28909266]
beta-B1u nocc = 0
   mo_energy = [6.29572539e-02 1.97546078e-01 8.01771835e-01 1.32649197e+00
 1.33933161e+00 2.79072008e+00 4.03982960e+00 4.05945059e+00
 9.32926711e+00 1.18210641e+01 1.18521559e+01 3.31169711e+01
 1.03271223e+02 1.03299820e+02 1.16473712e+02 3.95063771e+02]
beta-B2u nocc = 0
   mo_energy = [6.29572539e-02 1.97546078e-01 8.01771835e-01 1.32649197e+00
 1.33933161e+00 2.79072008e+00 4.03982960e+00 4.05945059e+00
 9.32926711e+00 1.18210641e+01 1.18521559e+01 3.31169711e+01
 1.03271223e+02 1.03299820e+02 1.16473712e+02 3.95063771e+02]
beta-B3u nocc = 1  HOMO = -0.52764351893361  LUMO = 0.142611782333546
   mo_energy = [-5.27643519e-01  1.42611782e-01  7.28695964e-01  1.33448464e+00
  1.34093454e+00  2.74000227e+00  4.05209299e+00  4.06189690e+00
  9.32533153e+00  1.18404771e+01  1.18560544e+01  3.31408386e+01
  1.03289093e+02  1.03303396e+02  1.16497483e+02  3.95076727e+02]
multiplicity <S^2> = 2.007397  2S+1 = 3.0049273
E1 = -103.24529433653638  Ecoul = 28.427695811919314
cycle= 4 E= -74.8175985246171  delta_E= -0.000499  |g|= 0.00842  |ddm|= 0.0207
    CPU time for cycle= 4     10.55 sec, wall time      1.80 sec
diis-norm(errvec)=0.0119074
diis-c [-5.81390182e-05  3.17716403e-02 -8.63195612e-03 -5.74948948e-01
  1.55180926e+00]
alpha HOMO (B3u) = -0.610079044081979  LUMO (B2u) = 0.132223896323644
alpha irrep_nelec = [2, 0, 0, 0, 0, 1, 1, 1]
beta  irrep_nelec = [2, 0, 0, 0, 0, 0, 0, 1]
alpha-Ag nocc = 2  HOMO = -1.41772750813753  LUMO = 0.135678246017042
   mo_energy = [-2.07082536e+01 -1.41772751e+00  1.35678246e-01  4.60815994e-01
  4.76376247e-01  8.64914107e-01  1.46467241e+00  1.51484548e+00
  3.59063548e+00  3.62704195e+00  3.63945065e+00  3.71265145e+00
  4.20359306e+00  4.28487174e+00  1.04905837e+01  1.05565342e+01
  1.05788362e+01  1.24892787e+01  1.25746992e+01  1.63453511e+01
  4.69373128e+01  4.69964156e+01  6.29642262e+01  1.98489265e+02
  1.98515212e+02  2.15578716e+02  8.94405023e+02]
alpha-B1g nocc = 0
   mo_energy = [  0.47234677   1.50163886   3.61172915   3.63633517   4.26371733
  10.52888515  10.57324508  12.55308832  46.98160394 198.50872487]
alpha-B2g nocc = 0
   mo_energy = [  0.47234677   1.50163886   3.61172915   3.63633517   4.26371733
  10.52888515  10.57324508  12.55308832  46.98160394 198.50872487]
alpha-B3g nocc = 0
   mo_energy = [  0.46081599   1.46467241   3.59063548   3.62704195   4.20359306
  10.4905837   10.55653421  12.48927871  46.93731277 198.48926491]
alpha-Au nocc = 0
   mo_energy = [  1.32348069   3.99988004  11.75684223 103.26098122]
alpha-B1u nocc = 1  HOMO = -0.710548916281945  LUMO = 0.132223896323648
   mo_energy = [-7.10548916e-01  1.32223896e-01  6.75936780e-01  1.30879277e+00
  1.33255805e+00  2.63495370e+00  3.96373421e+00  4.02215470e+00
  9.20865483e+00  1.17047222e+01  1.17885764e+01  3.30566952e+01
  1.03233241e+02  1.03277642e+02  1.16453344e+02  3.95058589e+02]
alpha-B2u nocc = 1  HOMO = -0.710548916281958  LUMO = 0.132223896323644
   mo_energy = [-7.10548916e-01  1.32223896e-01  6.75936780e-01  1.30879277e+00
  1.33255805e+00  2.63495370e+00  3.96373421e+00  4.02215470e+00
  9.20865483e+00  1.17047222e+01  1.17885764e+01  3.30566952e+01
  1.03233241e+02  1.03277642e+02  1.16453344e+02  3.95058589e+02]
alpha-B3u nocc = 1  HOMO = -0.610079044081979  LUMO = 0.139943966224233
   mo_energy = [-6.10079044e-01  1.39943966e-01  7.09956910e-01  1.32348069e+00
  1.33563854e+00  2.70253857e+00  3.99988004e+00  4.02970091e+00
  9.28705964e+00  1.17568422e+01  1.17992432e+01  3.31176990e+01
  1.03260981e+02  1.03283198e+02  1.16488431e+02  3.95074167e+02]
beta-Ag nocc = 2  HOMO = -1.07677225483203  LUMO = 0.146435709417478
   mo_energy = [-2.06308401e+01 -1.07677225e+00  1.46435709e-01  4.77917421e-01
  4.80467814e-01  9.16040833e-01  1.55507926e+00  1.57278990e+00
  3.61848076e+00  3.64184605e+00  3.64962591e+00  3.80240686e+00
  4.36222924e+00  4.38002155e+00  1.05617421e+01  1.05994968e+01
  1.06121136e+01  1.26283295e+01  1.26407032e+01  1.64154096e+01
  4.69996775e+01  4.70273134e+01  6.29927771e+01  1.98504157e+02
  1.98522952e+02  2.15587736e+02  8.94407608e+02]
beta-B1g nocc = 0
   mo_energy = [  0.47961712   1.55877323   3.63210893   3.6476822    4.36611008
  10.58374641  10.60895815  12.63755404  47.0203897  198.51825267]
beta-B2g nocc = 0
   mo_energy = [  0.47961712   1.55877323   3.63210893   3.6476822    4.36611008
  10.58374641  10.60895815  12.63755404  47.0203897  198.51825267]
beta-B3g nocc = 0
   mo_energy = [  0.47791742   1.5727899    3.61848076   3.64184605   4.38002155
  10.56174207  10.5994968   12.62832954  46.99967747 198.50415672]
beta-Au nocc = 0
   mo_energy = [  1.33393636   4.05133582  11.84033522 103.28937478]
beta-B1u nocc = 0
   mo_energy = [6.25309508e-02 1.97575908e-01 8.01954447e-01 1.32580129e+00
 1.33884892e+00 2.79062192e+00 4.03895920e+00 4.05871100e+00
 9.32946905e+00 1.18210697e+01 1.18519070e+01 3.31175282e+01
 1.03271971e+02 1.03299824e+02 1.16474376e+02 3.95064374e+02]
beta-B2u nocc = 0
   mo_energy = [6.25309508e-02 1.97575908e-01 8.01954447e-01 1.32580129e+00
 1.33884892e+00 2.79062192e+00 4.03895920e+00 4.05871100e+00
 9.32946905e+00 1.18210697e+01 1.18519070e+01 3.31175282e+01
 1.03271971e+02 1.03299824e+02 1.16474376e+02 3.95064374e+02]
beta-B3u nocc = 1  HOMO = -0.524160839931523  LUMO = 0.142938655499731
   mo_energy = [-5.24160840e-01  1.42938655e-01  7.29963563e-01  1.33393636e+00
  1.34047061e+00  2.74131085e+00  4.05133582e+00  4.06115513e+00
  9.32594030e+00  1.18403352e+01  1.18557664e+01  3.31409237e+01
  1.03289375e+02  1.03303308e+02  1.16497579e+02  3.95077013e+02]
multiplicity <S^2> = 2.0087381  2S+1 = 3.0058197
E1 = -103.24828579915501  Ecoul = 28.430603729650837
cycle= 5 E= -74.8176820695042  delta_E= -8.35e-05  |g|= 0.00235  |ddm|= 0.0128
    CPU time for cycle= 5     10.04 sec, wall time      1.69 sec
diis-norm(errvec)=0.00333009
diis-c [-2.07339776e-06 -3.53524846e-03  3.45280672e-03  1.41051617e-01
 -6.60268403e-01  1.51929923e+00]
alpha HOMO (B3u) = -0.611210999412991  LUMO (B1u) = 0.132209888260213
alpha irrep_nelec = [2, 0, 0, 0, 0, 1, 1, 1]
beta  irrep_nelec = [2, 0, 0, 0, 0, 0, 0, 1]
alpha-Ag nocc = 2  HOMO = -1.41851787057313  LUMO = 0.135698040520782
   mo_energy = [-2.07082242e+01 -1.41851787e+00  1.35698041e-01  4.60852078e-01
  4.76522521e-01  8.64831707e-01  1.46478229e+00  1.51492027e+00
  3.59059595e+00  3.62706905e+00  3.63949649e+00  3.71238938e+00
  4.20350090e+00  4.28441031e+00  1.04907264e+01  1.05564578e+01
  1.05786757e+01  1.24894088e+01  1.25743238e+01  1.63453163e+01
  4.69377662e+01  4.69964476e+01  6.29644489e+01  1.98489677e+02
  1.98515420e+02  2.15578971e+02  8.94405217e+02]
alpha-B1g nocc = 0
   mo_energy = [  0.47246565   1.50172409   3.61173038   3.63637649   4.26336108
  10.52890596  10.57310614  12.55284834  46.98174473 198.50898456]
alpha-B2g nocc = 0
   mo_energy = [  0.47246565   1.50172409   3.61173038   3.63637649   4.26336108
  10.52890596  10.57310614  12.55284834  46.98174473 198.50898456]
alpha-B3g nocc = 0
   mo_energy = [  0.46085208   1.46478229   3.59059595   3.62706905   4.2035009
  10.49072641  10.55645783  12.4894088   46.93776615 198.48967699]
alpha-Au nocc = 0
   mo_energy = [  1.32353821   3.99987799  11.75676347 103.26131872]
alpha-B1u nocc = 1  HOMO = -0.711073143259434  LUMO = 0.132209888260213
   mo_energy = [-7.11073143e-01  1.32209888e-01  6.75827463e-01  1.30877425e+00
  1.33266243e+00  2.63480712e+00  3.96378129e+00  4.02211717e+00
  9.20871736e+00  1.17049021e+01  1.17883295e+01  3.30570022e+01
  1.03233791e+02  1.03277850e+02  1.16453711e+02  3.95058877e+02]
alpha-B2u nocc = 1  HOMO = -0.711073143259425  LUMO = 0.132209888260229
   mo_energy = [-7.11073143e-01  1.32209888e-01  6.75827463e-01  1.30877425e+00
  1.33266243e+00  2.63480712e+00  3.96378129e+00  4.02211717e+00
  9.20871736e+00  1.17049021e+01  1.17883295e+01  3.30570022e+01
  1.03233791e+02  1.03277850e+02  1.16453711e+02  3.95058877e+02]
alpha-B3u nocc = 1  HOMO = -0.611210999412991  LUMO = 0.139946920201105
   mo_energy = [-6.11210999e-01  1.39946920e-01  7.09767343e-01  1.32353821e+00
  1.33575887e+00  2.70211872e+00  3.99987799e+00  4.02965028e+00
  9.28668813e+00  1.17567635e+01  1.17989377e+01  3.31175993e+01
  1.03261319e+02  1.03283362e+02  1.16488537e+02  3.95074331e+02]
beta-Ag nocc = 2  HOMO = -1.07597112241574  LUMO = 0.146367738574141
   mo_energy = [-2.06300225e+01 -1.07597112e+00  1.46367739e-01  4.77803107e-01
  4.80258478e-01  9.16085093e-01  1.55498892e+00  1.57263960e+00
  3.61829349e+00  3.64168944e+00  3.64947920e+00  3.80281943e+00
  4.36284103e+00  4.38026837e+00  1.05619301e+01  1.05996440e+01
  1.06122470e+01  1.26289402e+01  1.26414422e+01  1.64160467e+01
  4.70003460e+01  4.70278433e+01  6.29933299e+01  1.98504658e+02
  1.98523313e+02  2.15588154e+02  8.94407888e+02]
beta-B1g nocc = 0
   mo_energy = [  0.47942935   1.55864957   3.63193981   3.64753302   4.36661124
  10.5839109   10.60909502  12.63825563  47.02095529 198.51864913]
beta-B2g nocc = 0
   mo_energy = [  0.47942935   1.55864957   3.63193981   3.64753302   4.36661124
  10.5839109   10.60909502  12.63825563  47.02095529 198.51864913]
beta-B3g nocc = 0
   mo_energy = [  0.47780311   1.5726396    3.61829349   3.64168944   4.38026837
  10.56193011  10.59964405  12.62894022  47.00034605 198.50465802]
beta-Au nocc = 0
   mo_energy = [  1.33377282   4.05128887  11.84080549 103.28992829]
beta-B1u nocc = 0
   mo_energy = [6.24940441e-02 1.97657000e-01 8.02083991e-01 1.32563766e+00
 1.33868512e+00 2.79085455e+00 4.03888475e+00 4.05868960e+00
 9.32994341e+00 1.18215480e+01 1.18523786e+01 3.31181316e+01
 1.03272646e+02 1.03300304e+02 1.16474908e+02 3.95064761e+02]
beta-B2u nocc = 0
   mo_energy = [6.24940441e-02 1.97657000e-01 8.02083991e-01 1.32563766e+00
 1.33868512e+00 2.79085455e+00 4.03888475e+00 4.05868960e+00
 9.32994341e+00 1.18215480e+01 1.18523786e+01 3.31181316e+01
 1.03272646e+02 1.03300304e+02 1.16474908e+02 3.95064761e+02]
beta-B3u nocc = 1  HOMO = -0.522079322709855  LUMO = 0.143067575676558
   mo_energy = [-5.22079323e-01  1.43067576e-01  7.30541905e-01  1.33377282e+00
  1.34030641e+00  2.74216530e+00  4.05128887e+00  4.06114345e+00
  9.32670197e+00  1.18408055e+01  1.18562396e+01  3.31414593e+01
  1.03289928e+02  1.03303764e+02  1.16497958e+02  3.95077302e+02]
multiplicity <S^2> = 2.0092362  2S+1 = 3.0061512
E1 = -103.24679010881667  Ecoul = 28.42910055176013
cycle= 6 E= -74.8176895570565  delta_E= -7.49e-06  |g|= 0.000437  |ddm|= 0.00529
    CPU time for cycle= 6     10.28 sec, wall time      1.70 sec
diis-norm(errvec)=0.00061803
diis-c [-1.19612428e-07  6.39090972e-04  1.47600206e-04 -3.63031542e-02
  1.88622300e-01 -5.92035249e-01  1.43892941e+00]
alpha HOMO (B3u) = -0.611612232876124  LUMO (B2u) = 0.13220781941036
alpha irrep_nelec = [2, 0, 0, 0, 0, 1, 1, 1]
beta  irrep_nelec = [2, 0, 0, 0, 0, 0, 0, 1]
alpha-Ag nocc = 2  HOMO = -1.4186659090221  LUMO = 0.135702457983018
   mo_energy = [-2.07083505e+01 -1.41866591e+00  1.35702458e-01  4.60847094e-01
  4.76548778e-01  8.64812038e-01  1.46475967e+00  1.51489035e+00
  3.59057868e+00  3.62705300e+00  3.63947765e+00  3.71230479e+00
  4.20344973e+00  4.28424917e+00  1.04906781e+01  1.05563795e+01
  1.05785837e+01  1.24893224e+01  1.25741378e+01  1.63451939e+01
  4.69376475e+01  4.69962866e+01  6.29643388e+01  1.98489584e+02
  1.98515319e+02  2.15578896e+02  8.94405186e+02]
alpha-B1g nocc = 0
   mo_energy = [  0.4724865    1.50170185   3.61171549   3.6363585    4.26323392
  10.5288421   10.57301775  12.55268977  46.98159505 198.50888627]
alpha-B2g nocc = 0
   mo_energy = [  0.4724865    1.50170185   3.61171549   3.6363585    4.26323392
  10.5288421   10.57301775  12.55268977  46.98159505 198.50888627]
alpha-B3g nocc = 0
   mo_energy = [  0.46084709   1.46475967   3.59057868   3.627053     4.20344973
  10.49067807  10.55637952  12.48932243  46.93764753 198.48958401]
alpha-Au nocc = 0
   mo_energy = [  1.32354132   3.99983745  11.75665478 103.26118326]
alpha-B1u nocc = 1  HOMO = -0.7111161984678  LUMO = 0.132207819410364
   mo_energy = [-7.11116198e-01  1.32207819e-01  6.75817106e-01  1.30876554e+00
  1.33267025e+00  2.63476523e+00  3.96375119e+00  4.02206545e+00
  9.20862954e+00  1.17048311e+01  1.17881946e+01  3.30568913e+01
  1.03233668e+02  1.03277707e+02  1.16453614e+02  3.95058818e+02]
alpha-B2u nocc = 1  HOMO = -0.711116198467811  LUMO = 0.13220781941036
   mo_energy = [-7.11116198e-01  1.32207819e-01  6.75817106e-01  1.30876554e+00
  1.33267025e+00  2.63476523e+00  3.96375119e+00  4.02206545e+00
  9.20862954e+00  1.17048311e+01  1.17881946e+01  3.30568913e+01
  1.03233668e+02  1.03277707e+02  1.16453614e+02  3.95058818e+02]
alpha-B3u nocc = 1  HOMO = -0.611612232876124  LUMO = 0.139931626929797
   mo_energy = [-6.11612233e-01  1.39931627e-01  7.09667082e-01  1.32354132e+00
  1.33576779e+00  2.70193021e+00  3.99983745e+00  4.02959380e+00
  9.28648677e+00  1.17566548e+01  1.17987933e+01  3.31174370e+01
  1.03261183e+02  1.03283217e+02  1.16488426e+02  3.95074270e+02]
beta-Ag nocc = 2  HOMO = -1.07596862855878  LUMO = 0.146344259568064
   mo_energy = [-2.06301186e+01 -1.07596863e+00  1.46344260e-01  4.77793084e-01
  4.80209427e-01  9.16054907e-01  1.55496148e+00  1.57261235e+00
  3.61827342e+00  3.64165046e+00  3.64943518e+00  3.80278846e+00
  4.36287382e+00  4.38021891e+00  1.05618812e+01  1.05996034e+01
  1.06122095e+01  1.26288557e+01  1.26414386e+01  1.64159711e+01
  4.70002322e+01  4.70277724e+01  6.29932277e+01  1.98504560e+02
  1.98523228e+02  2.15588069e+02  8.94407846e+02]
beta-B1g nocc = 0
   mo_energy = [  0.47938686   1.5586119    3.63190817   3.64749017   4.36662098
  10.58386668  10.60905666  12.63823205  47.02087401 198.51856054]
beta-B2g nocc = 0
   mo_energy = [  0.47938686   1.5586119    3.63190817   3.64749017   4.36662098
  10.58386668  10.60905666  12.63823205  47.02087401 198.51856054]
beta-B3g nocc = 0
   mo_energy = [  0.47779308   1.57261235   3.61827342   3.64165046   4.38021891
  10.56188123  10.59960339  12.62885569  47.00023224 198.50455988]
beta-Au nocc = 0
   mo_energy = [  1.33374156   4.05125435  11.840762   103.28982233]
beta-B1u nocc = 0
   mo_energy = [6.24677134e-02 1.97634948e-01 8.02055470e-01 1.32562452e+00
 1.33864471e+00 2.79080816e+00 4.03885306e+00 4.05865742e+00
 9.32987143e+00 1.18214771e+01 1.18523523e+01 3.31180304e+01
 1.03272523e+02 1.03300208e+02 1.16474805e+02 3.95064690e+02]
beta-B2u nocc = 0
   mo_energy = [6.24677134e-02 1.97634948e-01 8.02055470e-01 1.32562452e+00
 1.33864471e+00 2.79080816e+00 4.03885306e+00 4.05865742e+00
 9.32987143e+00 1.18214771e+01 1.18523523e+01 3.31180304e+01
 1.03272523e+02 1.03300208e+02 1.16474805e+02 3.95064690e+02]
beta-B3u nocc = 1  HOMO = -0.521782766557186  LUMO = 0.143079990590762
   mo_energy = [-5.21782767e-01  1.43079991e-01  7.30606037e-01  1.33374156e+00
  1.34026328e+00  2.74224115e+00  4.05125435e+00  4.06111291e+00
  9.32672102e+00  1.18407620e+01  1.18562192e+01  3.31414053e+01
  1.03289822e+02  1.03303671e+02  1.16497872e+02  3.95077237e+02]
multiplicity <S^2> = 2.0093405  2S+1 = 3.0062206
E1 = -103.24679778170656  Ecoul = 28.429107946429788
cycle= 7 E= -74.8176898352768  delta_E= -2.78e-07  |g|= 8.92e-05  |ddm|= 0.000836
    CPU time for cycle= 7      9.91 sec, wall time      1.61 sec
diis-norm(errvec)=0.000126143
diis-c [-2.47885653e-09 -3.46428763e-06 -4.79402361e-04  6.09902696e-03
 -3.45774999e-02  1.35329535e-01 -5.24767265e-01  1.41839907e+00]
alpha HOMO (B3u) = -0.611670969832133  LUMO (B2u) = 0.132210007699014
alpha irrep_nelec = [2, 0, 0, 0, 0, 1, 1, 1]
beta  irrep_nelec = [2, 0, 0, 0, 0, 0, 0, 1]
alpha-Ag nocc = 2  HOMO = -1.41865565946557  LUMO = 0.135707560993939
   mo_energy = [-2.07083308e+01 -1.41865566e+00  1.35707561e-01  4.60849087e-01
  4.76557897e-01  8.64820998e-01  1.46476240e+00  1.51489985e+00
  3.59058552e+00  3.62706086e+00  3.63948621e+00  3.71231791e+00
  4.20346519e+00  4.28424994e+00  1.04906880e+01  1.05563930e+01
  1.05785989e+01  1.24893421e+01  1.25741488e+01  1.63452137e+01
  4.69376680e+01  4.69963112e+01  6.29643612e+01  1.98489601e+02
  1.98515343e+02  2.15578914e+02  8.94405194e+02]
alpha-B1g nocc = 0
   mo_energy = [  0.47249404   1.50170957   3.61172275   3.63636686   4.26323815
  10.52885385  10.57303249  12.55270253  46.9816185  198.50890796]
alpha-B2g nocc = 0
   mo_energy = [  0.47249404   1.50170957   3.61172275   3.63636686   4.26323815
  10.52885385  10.57303249  12.55270253  46.9816185  198.50890796]
alpha-B3g nocc = 0
   mo_energy = [  0.46084909   1.4647624    3.59058552   3.62706086   4.20346519
  10.49068805  10.55639301  12.48934211  46.93766799 198.48960144]
alpha-Au nocc = 0
   mo_energy = [  1.32354692   3.99984573  11.75666917 103.26120781]
alpha-B1u nocc = 1  HOMO = -0.711092380605794  LUMO = 0.132210007699028
   mo_energy = [-7.11092381e-01  1.32210008e-01  6.75827290e-01  1.30876956e+00
  1.33267691e+00  2.63478196e+00  3.96375824e+00  4.02207501e+00
  9.20864912e+00  1.17048455e+01  1.17882095e+01  3.30569122e+01
  1.03233688e+02  1.03277734e+02  1.16453633e+02  3.95058831e+02]
alpha-B2u nocc = 1  HOMO = -0.711092380605785  LUMO = 0.132210007699014
   mo_energy = [-7.11092381e-01  1.32210008e-01  6.75827290e-01  1.30876956e+00
  1.33267691e+00  2.63478196e+00  3.96375824e+00  4.02207501e+00
  9.20864912e+00  1.17048455e+01  1.17882095e+01  3.30569122e+01
  1.03233688e+02  1.03277734e+02  1.16453633e+02  3.95058831e+02]
alpha-B3u nocc = 1  HOMO = -0.611670969832133  LUMO = 0.139928482150307
   mo_energy = [-6.11670970e-01  1.39928482e-01  7.09652534e-01  1.32354692e+00
  1.33577482e+00  2.70191393e+00  3.99984573e+00  4.02960391e+00
  9.28648942e+00  1.17566692e+01  1.17988086e+01  3.31174586e+01
  1.03261208e+02  1.03283245e+02  1.16488452e+02  3.95074287e+02]
beta-Ag nocc = 2  HOMO = -1.07594245448424  LUMO = 0.146344420259932
   mo_energy = [-2.06300901e+01 -1.07594245e+00  1.46344420e-01  4.77796290e-01
  4.80204916e-01  9.16061563e-01  1.55496521e+00  1.57262264e+00
  3.61828408e+00  3.64165534e+00  3.64943823e+00  3.80280605e+00
  4.36289866e+00  4.38023078e+00  1.05618916e+01  1.05996216e+01
  1.06122303e+01  1.26288685e+01  1.26414771e+01  1.64159963e+01
  4.70002495e+01  4.70278119e+01  6.29932523e+01  1.98504576e+02
  1.98523254e+02  2.15588087e+02  8.94407854e+02]
beta-B1g nocc = 0
   mo_energy = [  0.47938442   1.55861868   3.6319154    3.64749368   4.3666437
  10.58388155  10.60907685  12.63826405  47.02090796 198.51858458]
beta-B2g nocc = 0
   mo_energy = [  0.47938442   1.55861868   3.6319154    3.64749368   4.3666437
  10.58388155  10.60907685  12.63826405  47.02090796 198.51858458]
beta-B3g nocc = 0
   mo_energy = [  0.47779629   1.57262264   3.61828408   3.64165534   4.38023078
  10.56189161  10.59962156  12.62886846  47.00024952 198.50457623]
beta-Au nocc = 0
   mo_energy = [  1.3337431    4.05126575  11.84078362 103.28985076]
beta-B1u nocc = 0
   mo_energy = [6.24747601e-02 1.97642567e-01 8.02063738e-01 1.32563084e+00
 1.33864328e+00 2.79082117e+00 4.03886481e+00 4.05866818e+00
 9.32988812e+00 1.18214869e+01 1.18523811e+01 3.31180494e+01
 1.03272541e+02 1.03300243e+02 1.16474823e+02 3.95064702e+02]
beta-B2u nocc = 0
   mo_energy = [6.24747601e-02 1.97642567e-01 8.02063738e-01 1.32563084e+00
 1.33864328e+00 2.79082117e+00 4.03886481e+00 4.05866818e+00
 9.32988812e+00 1.18214869e+01 1.18523811e+01 3.31180494e+01
 1.03272541e+02 1.03300243e+02 1.16474823e+02 3.95064702e+02]
beta-B3u nocc = 1  HOMO = -0.521742308398503  LUMO = 0.143081238154377
   mo_energy = [-5.21742308e-01  1.43081238e-01  7.30617486e-01  1.33374310e+00
  1.34026085e+00  2.74226834e+00  4.05126575e+00  4.06112339e+00
  9.32676069e+00  1.18407836e+01  1.18562503e+01  3.31414461e+01
  1.03289851e+02  1.03303708e+02  1.16497904e+02  3.95077255e+02]
multiplicity <S^2> = 2.0093597  2S+1 = 3.0062334
E1 = -103.24675926919221  Ecoul = 28.42906942520314
cycle= 8 E= -74.8176898439891  delta_E= -8.71e-09  |g|= 9.46e-06  |ddm|= 0.000202
    CPU time for cycle= 8      9.96 sec, wall time      1.70 sec
diis-norm(errvec)=1.33737e-05
diis-c [-4.04403292e-11 -1.27578723e-05  1.23026078e-04 -7.11375547e-04
  4.54162086e-03 -2.03284181e-02  1.02278501e-01 -3.50402198e-01
  1.26451160e+00]
alpha HOMO (B3u) = -0.611672995435364  LUMO (B2u) = 0.132210293412617
alpha irrep_nelec = [2, 0, 0, 0, 0, 1, 1, 1]
beta  irrep_nelec = [2, 0, 0, 0, 0, 0, 0, 1]
alpha-Ag nocc = 2  HOMO = -1.41865501716465  LUMO = 0.135707488772443
   mo_energy = [-2.07083317e+01 -1.41865502e+00  1.35707489e-01  4.60848866e-01
  4.76557899e-01  8.64820947e-01  1.46476234e+00  1.51490063e+00
  3.59058585e+00  3.62706103e+00  3.63948649e+00  3.71231800e+00
  4.20346588e+00  4.28425025e+00  1.04906876e+01  1.05563932e+01
  1.05785993e+01  1.24893419e+01  1.25741489e+01  1.63452132e+01
  4.69376670e+01  4.69963115e+01  6.29643604e+01  1.98489600e+02
  1.98515342e+02  2.15578913e+02  8.94405193e+02]
alpha-B1g nocc = 0
   mo_energy = [  0.4724939    1.50170986   3.6117229    3.63636711   4.26323841
  10.52885374  10.5730329   12.55270256  46.98161853 198.50890751]
alpha-B2g nocc = 0
   mo_energy = [  0.4724939    1.50170986   3.6117229    3.63636711   4.26323841
  10.52885374  10.5730329   12.55270256  46.98161853 198.50890751]
alpha-B3g nocc = 0
   mo_energy = [  0.46084887   1.46476234   3.59058585   3.62706103   4.20346588
  10.49068764  10.5563932   12.48934191  46.93766699 198.48960026]
alpha-Au nocc = 0
   mo_energy = [  1.32354688   3.99984595  11.75666908 103.26120738]
alpha-B1u nocc = 1  HOMO = -0.71108973431328  LUMO = 0.132210293412631
   mo_energy = [-7.11089734e-01  1.32210293e-01  6.75828269e-01  1.30876971e+00
  1.33267690e+00  2.63478309e+00  3.96375837e+00  4.02207549e+00
  9.20864936e+00  1.17048449e+01  1.17882098e+01  3.30569115e+01
  1.03233686e+02  1.03277734e+02  1.16453632e+02  3.95058830e+02]
alpha-B2u nocc = 1  HOMO = -0.711089734313275  LUMO = 0.132210293412617
   mo_energy = [-7.11089734e-01  1.32210293e-01  6.75828269e-01  1.30876971e+00
  1.33267690e+00  2.63478309e+00  3.96375837e+00  4.02207549e+00
  9.20864936e+00  1.17048449e+01  1.17882098e+01  3.30569115e+01
  1.03233686e+02  1.03277734e+02  1.16453632e+02  3.95058830e+02]
alpha-B3u nocc = 1  HOMO = -0.611672995435364  LUMO = 0.139928219669613
   mo_energy = [-6.11672995e-01  1.39928220e-01  7.09651605e-01  1.32354688e+00
  1.33577486e+00  2.70191294e+00  3.99984595e+00  4.02960451e+00
  9.28648926e+00  1.17566691e+01  1.17988090e+01  3.31174589e+01
  1.03261207e+02  1.03283246e+02  1.16488452e+02  3.95074287e+02]
beta-Ag nocc = 2  HOMO = -1.07594160482206  LUMO = 0.146345027173309
   mo_energy = [-2.06300904e+01 -1.07594160e+00  1.46345027e-01  4.77796803e-01
  4.80205238e-01  9.16062251e-01  1.55496438e+00  1.57262300e+00
  3.61828483e+00  3.64165555e+00  3.64943820e+00  3.80280624e+00
  4.36289803e+00  4.38023016e+00  1.05618908e+01  1.05996214e+01
  1.06122303e+01  1.26288669e+01  1.26414769e+01  1.64159961e+01
  4.70002477e+01  4.70278119e+01  6.29932520e+01  1.98504575e+02
  1.98523254e+02  2.15588086e+02  8.94407853e+02]
beta-B1g nocc = 0
   mo_energy = [  0.47938505   1.55861865   3.63191587   3.64749372   4.36664301
  10.58388111  10.60907678  12.63826348  47.02090751 198.51858426]
beta-B2g nocc = 0
   mo_energy = [  0.47938505   1.55861865   3.63191587   3.64749372   4.36664301
  10.58388111  10.60907678  12.63826348  47.02090751 198.51858426]
beta-B3g nocc = 0
   mo_energy = [  0.4777968    1.572623     3.61828483   3.64165555   4.38023016
  10.56189085  10.59962136  12.6288669   47.00024768 198.5045751 ]
beta-Au nocc = 0
   mo_energy = [  1.33374364   4.05126572  11.84078297 103.28984992]
beta-B1u nocc = 0
   mo_energy = [6.24747500e-02 1.97642504e-01 8.02063903e-01 1.32563161e+00
 1.33864352e+00 2.79082079e+00 4.03886492e+00 4.05866794e+00
 9.32988698e+00 1.18214854e+01 1.18523809e+01 3.31180481e+01
 1.03272539e+02 1.03300243e+02 1.16474822e+02 3.95064702e+02]
beta-B2u nocc = 0
   mo_energy = [6.24747500e-02 1.97642504e-01 8.02063903e-01 1.32563161e+00
 1.33864352e+00 2.79082079e+00 4.03886492e+00 4.05866794e+00
 9.32988698e+00 1.18214854e+01 1.18523809e+01 3.31180481e+01
 1.03272539e+02 1.03300243e+02 1.16474822e+02 3.95064702e+02]
beta-B3u nocc = 1  HOMO = -0.521746659379479  LUMO = 0.143080795648272
   mo_energy = [-5.21746659e-01  1.43080796e-01  7.30616017e-01  1.33374364e+00
  1.34026097e+00  2.74226687e+00  4.05126572e+00  4.06112304e+00
  9.32676032e+00  1.18407830e+01  1.18562503e+01  3.31414465e+01
  1.03289850e+02  1.03303708e+02  1.16497904e+02  3.95077255e+02]
multiplicity <S^2> = 2.0093595  2S+1 = 3.0062332
E1 = -103.24676322796834  Ecoul = 28.429073383881338
cycle= 9 E= -74.817689844087  delta_E= -9.79e-11  |g|= 1.2e-06  |ddm|= 1.1e-05
    CPU time for cycle= 9     15.65 sec, wall time      2.60 sec
diis-norm(errvec)=1.69463e-06
diis-c [-4.09153851e-13  1.24004390e+00 -1.74931443e-05  1.05744654e-04
 -5.34327564e-04  2.34752567e-03 -1.24983316e-02  4.80655087e-02
 -2.77512529e-01]
alpha HOMO (B3u) = -0.611672784925104  LUMO (B1u) = 0.132210312544408
alpha irrep_nelec = [2, 0, 0, 0, 0, 1, 1, 1]
beta  irrep_nelec = [2, 0, 0, 0, 0, 0, 0, 1]
alpha-Ag nocc = 2  HOMO = -1.41865476553072  LUMO = 0.135707431806202
   mo_energy = [-2.07083314e+01 -1.41865477e+00  1.35707432e-01  4.60848842e-01
  4.76557843e-01  8.64820965e-01  1.46476249e+00  1.51490080e+00
  3.59058598e+00  3.62706112e+00  3.63948656e+00  3.71231817e+00
  4.20346615e+00  4.28425055e+00  1.04906878e+01  1.05563935e+01
  1.05785997e+01  1.24893422e+01  1.25741493e+01  1.63452135e+01
  4.69376672e+01  4.69963120e+01  6.29643607e+01  1.98489601e+02
  1.98515343e+02  2.15578913e+02  8.94405193e+02]
alpha-B1g nocc = 0
   mo_energy = [  0.47249384   1.50171002   3.61172301   3.63636719   4.26323869
  10.52885396  10.5730332   12.55270295  46.98161898 198.50890789]
alpha-B2g nocc = 0
   mo_energy = [  0.47249384   1.50171002   3.61172301   3.63636719   4.26323869
  10.52885396  10.5730332   12.55270295  46.98161898 198.50890789]
alpha-B3g nocc = 0
   mo_energy = [  0.46084884   1.46476249   3.59058598   3.62706112   4.20346615
  10.49068777  10.55639348  12.48934216  46.93766724 198.48960052]
alpha-Au nocc = 0
   mo_energy = [  1.32354689   3.99984614  11.75666937 103.26120776]
alpha-B1u nocc = 1  HOMO = -0.711089008655504  LUMO = 0.132210312544408
   mo_energy = [-7.11089009e-01  1.32210313e-01  6.75828410e-01  1.30876976e+00
  1.33267689e+00  2.63478342e+00  3.96375854e+00  4.02207569e+00
  9.20864968e+00  1.17048450e+01  1.17882102e+01  3.30569118e+01
  1.03233687e+02  1.03277735e+02  1.16453633e+02  3.95058830e+02]
alpha-B2u nocc = 1  HOMO = -0.711089008655491  LUMO = 0.13221031254444
   mo_energy = [-7.11089009e-01  1.32210313e-01  6.75828410e-01  1.30876976e+00
  1.33267689e+00  2.63478342e+00  3.96375854e+00  4.02207569e+00
  9.20864968e+00  1.17048450e+01  1.17882102e+01  3.30569118e+01
  1.03233687e+02  1.03277735e+02  1.16453633e+02  3.95058830e+02]
alpha-B3u nocc = 1  HOMO = -0.611672784925104  LUMO = 0.139928172845507
   mo_energy = [-6.11672785e-01  1.39928173e-01  7.09651553e-01  1.32354689e+00
  1.33577484e+00  2.70191312e+00  3.99984614e+00  4.02960472e+00
  9.28648967e+00  1.17566694e+01  1.17988094e+01  3.31174594e+01
  1.03261208e+02  1.03283246e+02  1.16488452e+02  3.95074287e+02]
beta-Ag nocc = 2  HOMO = -1.07594147658942  LUMO = 0.146345149420184
   mo_energy = [-2.06300901e+01 -1.07594148e+00  1.46345149e-01  4.77796888e-01
  4.80205357e-01  9.16062443e-01  1.55496439e+00  1.57262307e+00
  3.61828497e+00  3.64165564e+00  3.64943827e+00  3.80280647e+00
  4.36289810e+00  4.38023027e+00  1.05618909e+01  1.05996215e+01
  1.06122305e+01  1.26288670e+01  1.26414772e+01  1.64159964e+01
  4.70002478e+01  4.70278123e+01  6.29932523e+01  1.98504575e+02
  1.98523255e+02  2.15588087e+02  8.94407854e+02]
beta-B1g nocc = 0
   mo_energy = [  0.47938517   1.55861867   3.63191598   3.64749379   4.36664308
  10.58388125  10.609077    12.6382637   47.02090784 198.51858464]
beta-B2g nocc = 0
   mo_energy = [  0.47938517   1.55861867   3.63191598   3.64749379   4.36664308
  10.58388125  10.609077    12.6382637   47.02090784 198.51858464]
beta-B3g nocc = 0
   mo_energy = [  0.47779689   1.57262307   3.61828497   3.64165564   4.38023027
  10.56189092  10.59962154  12.62886699  47.00024782 198.50457537]
beta-Au nocc = 0
   mo_energy = [  1.33374373   4.0512658   11.84078316 103.28985023]
beta-B1u nocc = 0
   mo_energy = [6.24748146e-02 1.97642544e-01 8.02064026e-01 1.32563173e+00
 1.33864359e+00 2.79082090e+00 4.03886501e+00 4.05866802e+00
 9.32988712e+00 1.18214855e+01 1.18523812e+01 3.31180484e+01
 1.03272539e+02 1.03300243e+02 1.16474823e+02 3.95064702e+02]
beta-B2u nocc = 0
   mo_energy = [6.24748146e-02 1.97642544e-01 8.02064026e-01 1.32563173e+00
 1.33864359e+00 2.79082090e+00 4.03886501e+00 4.05866802e+00
 9.32988712e+00 1.18214855e+01 1.18523812e+01 3.31180484e+01
 1.03272539e+02 1.03300243e+02 1.16474823e+02 3.95064702e+02]
[...]
   mo_energy = [6.24748187e-02 1.97642545e-01 8.02064032e-01 1.32563173e+00
 1.33864360e+00 2.79082091e+00 4.03886502e+00 4.05866803e+00
 9.32988713e+00 1.18214855e+01 1.18523812e+01 3.31180484e+01
 1.03272539e+02 1.03300243e+02 1.16474823e+02 3.95064702e+02]
beta-B3u nocc = 1  HOMO = -0.521747470081663  LUMO = 0.143080745657898
   mo_energy = [-5.21747470e-01  1.43080746e-01  7.30615893e-01  1.33374373e+00
  1.34026104e+00  2.74226681e+00  4.05126581e+00  4.06112314e+00
  9.32676053e+00  1.18407832e+01  1.18562506e+01  3.31414470e+01
  1.03289850e+02  1.03303709e+02  1.16497905e+02  3.95077256e+02]
multiplicity <S^2> = 2.0093594  2S+1 = 3.0062331
E1 = -103.24676383538848  Ecoul = 28.42907399129951
cycle= 421 E= -74.817689844089  delta_E=    0  |g|= 1.02e-12  |ddm|= 5.83e-13
    CPU time for cycle= 421      9.97 sec, wall time      1.61 sec
diis-norm(errvec)=1.76122e-12
Linear dependence found in DIIS error vectors.
diis-c [-2.89052492e-16  1.25000000e-01  1.25000000e-01  1.25000000e-01
  1.25000000e-01  1.25000000e-01  1.25000000e-01  1.25000000e-01
  1.25000000e-01]
alpha HOMO (B3u) = -0.611672790240488  LUMO (B1u) = 0.132210314696113
alpha irrep_nelec = [2, 0, 0, 0, 0, 1, 1, 1]
beta  irrep_nelec = [2, 0, 0, 0, 0, 0, 0, 1]
alpha-Ag nocc = 2  HOMO = -1.41865475915598  LUMO = 0.135707429708973
   mo_energy = [-2.07083314e+01 -1.41865476e+00  1.35707430e-01  4.60848844e-01
  4.76557838e-01  8.64820970e-01  1.46476250e+00  1.51490081e+00
  3.59058599e+00  3.62706113e+00  3.63948657e+00  3.71231818e+00
  4.20346616e+00  4.28425056e+00  1.04906878e+01  1.05563935e+01
  1.05785997e+01  1.24893422e+01  1.25741494e+01  1.63452135e+01
  4.69376673e+01  4.69963121e+01  6.29643607e+01  1.98489601e+02
  1.98515343e+02  2.15578913e+02  8.94405193e+02]
alpha-B1g nocc = 0
   mo_energy = [  0.47249384   1.50171003   3.61172302   3.63636719   4.26323871
  10.52885397  10.57303322  12.55270297  46.981619   198.50890791]
alpha-B2g nocc = 0
   mo_energy = [  0.47249384   1.50171003   3.61172302   3.63636719   4.26323871
  10.52885397  10.57303322  12.55270297  46.981619   198.50890791]
alpha-B3g nocc = 0
   mo_energy = [  0.46084884   1.4647625    3.59058599   3.62706113   4.20346616
  10.49068777  10.55639349  12.48934217  46.93766725 198.48960053]
alpha-Au nocc = 0
   mo_energy = [  1.3235469    3.99984615  11.75666939 103.26120777]
alpha-B1u nocc = 1  HOMO = -0.711088976578444  LUMO = 0.132210314696113
   mo_energy = [-7.11088977e-01  1.32210315e-01  6.75828422e-01  1.30876977e+00
  1.33267689e+00  2.63478344e+00  3.96375856e+00  4.02207570e+00
  9.20864970e+00  1.17048450e+01  1.17882102e+01  3.30569118e+01
  1.03233687e+02  1.03277735e+02  1.16453633e+02  3.95058830e+02]
alpha-B2u nocc = 1  HOMO = -0.711088976578432  LUMO = 0.132210314696147
   mo_energy = [-7.11088977e-01  1.32210315e-01  6.75828422e-01  1.30876977e+00
  1.33267689e+00  2.63478344e+00  3.96375856e+00  4.02207570e+00
  9.20864970e+00  1.17048450e+01  1.17882102e+01  3.30569118e+01
  1.03233687e+02  1.03277735e+02  1.16453633e+02  3.95058830e+02]
alpha-B3u nocc = 1  HOMO = -0.611672790240488  LUMO = 0.139928169788694
   mo_energy = [-6.11672790e-01  1.39928170e-01  7.09651550e-01  1.32354690e+00
  1.33577483e+00  2.70191312e+00  3.99984615e+00  4.02960473e+00
  9.28648969e+00  1.17566694e+01  1.17988094e+01  3.31174594e+01
  1.03261208e+02  1.03283246e+02  1.16488452e+02  3.95074287e+02]
beta-Ag nocc = 2  HOMO = -1.07594145606247  LUMO = 0.146345152737278
   mo_energy = [-2.06300901e+01 -1.07594146e+00  1.46345153e-01  4.77796893e-01
  4.80205367e-01  9.16062449e-01  1.55496441e+00  1.57262308e+00
  3.61828497e+00  3.64165565e+00  3.64943828e+00  3.80280649e+00
  4.36289811e+00  4.38023027e+00  1.05618909e+01  1.05996216e+01
  1.06122305e+01  1.26288670e+01  1.26414772e+01  1.64159964e+01
  4.70002478e+01  4.70278123e+01  6.29932523e+01  1.98504575e+02
  1.98523255e+02  2.15588087e+02  8.94407854e+02]
beta-B1g nocc = 0
   mo_energy = [  0.47938517   1.55861867   3.63191598   3.6474938    4.36664309
  10.58388126  10.60907701  12.63826371  47.02090785 198.51858466]
beta-B2g nocc = 0
   mo_energy = [  0.47938517   1.55861867   3.63191598   3.6474938    4.36664309
  10.58388126  10.60907701  12.63826371  47.02090785 198.51858466]
beta-B3g nocc = 0
   mo_energy = [  0.47779689   1.57262308   3.61828497   3.64165565   4.38023027
  10.56189092  10.59962156  12.628867    47.00024782 198.50457538]
beta-Au nocc = 0
   mo_energy = [  1.33374373   4.05126581  11.84078317 103.28985024]
beta-B1u nocc = 0
   mo_energy = [6.24748187e-02 1.97642545e-01 8.02064032e-01 1.32563173e+00
 1.33864360e+00 2.79082091e+00 4.03886502e+00 4.05866803e+00
 9.32988713e+00 1.18214855e+01 1.18523812e+01 3.31180484e+01
 1.03272539e+02 1.03300243e+02 1.16474823e+02 3.95064702e+02]
beta-B2u nocc = 0
   mo_energy = [6.24748187e-02 1.97642545e-01 8.02064032e-01 1.32563173e+00
 1.33864360e+00 2.79082091e+00 4.03886502e+00 4.05866803e+00
 9.32988713e+00 1.18214855e+01 1.18523812e+01 3.31180484e+01
 1.03272539e+02 1.03300243e+02 1.16474823e+02 3.95064702e+02]
beta-B3u nocc = 1  HOMO = -0.521747470081666  LUMO = 0.143080745657908
   mo_energy = [-5.21747470e-01  1.43080746e-01  7.30615893e-01  1.33374373e+00
  1.34026104e+00  2.74226681e+00  4.05126581e+00  4.06112314e+00
  9.32676053e+00  1.18407832e+01  1.18562506e+01  3.31414470e+01
  1.03289850e+02  1.03303709e+02  1.16497905e+02  3.95077256e+02]
multiplicity <S^2> = 2.0093594  2S+1 = 3.0062331
E1 = -103.24676383538849  Ecoul = 28.42907399129953
cycle= 422 E= -74.817689844089  delta_E=    0  |g|= 7.13e-13  |ddm|= 6.11e-13
    CPU time for cycle= 422      9.60 sec, wall time      1.60 sec
diis-norm(errvec)=1.12943e-12
Linear dependence found in DIIS error vectors.
diis-c [-2.89052492e-16  1.25000000e-01  1.25000000e-01  1.25000000e-01
  1.25000000e-01  1.25000000e-01  1.25000000e-01  1.25000000e-01
  1.25000000e-01]
alpha HOMO (B3u) = -0.611672790240489  LUMO (B1u) = 0.132210314696117
alpha irrep_nelec = [2, 0, 0, 0, 0, 1, 1, 1]
beta  irrep_nelec = [2, 0, 0, 0, 0, 0, 0, 1]
alpha-Ag nocc = 2  HOMO = -1.41865475915596  LUMO = 0.135707429708948
   mo_energy = [-2.07083314e+01 -1.41865476e+00  1.35707430e-01  4.60848844e-01
  4.76557838e-01  8.64820970e-01  1.46476250e+00  1.51490081e+00
  3.59058599e+00  3.62706113e+00  3.63948657e+00  3.71231818e+00
  4.20346616e+00  4.28425056e+00  1.04906878e+01  1.05563935e+01
  1.05785997e+01  1.24893422e+01  1.25741494e+01  1.63452135e+01
  4.69376673e+01  4.69963121e+01  6.29643607e+01  1.98489601e+02
  1.98515343e+02  2.15578913e+02  8.94405193e+02]
alpha-B1g nocc = 0
   mo_energy = [  0.47249384   1.50171003   3.61172302   3.63636719   4.26323871
  10.52885397  10.57303322  12.55270297  46.981619   198.50890791]
alpha-B2g nocc = 0
   mo_energy = [  0.47249384   1.50171003   3.61172302   3.63636719   4.26323871
  10.52885397  10.57303322  12.55270297  46.981619   198.50890791]
alpha-B3g nocc = 0
   mo_energy = [  0.46084884   1.4647625    3.59058599   3.62706113   4.20346616
  10.49068777  10.55639349  12.48934217  46.93766725 198.48960053]
alpha-Au nocc = 0
   mo_energy = [  1.3235469    3.99984615  11.75666939 103.26120777]
alpha-B1u nocc = 1  HOMO = -0.7110889765784  LUMO = 0.132210314696117
   mo_energy = [-7.11088977e-01  1.32210315e-01  6.75828422e-01  1.30876977e+00
  1.33267689e+00  2.63478344e+00  3.96375856e+00  4.02207570e+00
  9.20864970e+00  1.17048450e+01  1.17882102e+01  3.30569118e+01
  1.03233687e+02  1.03277735e+02  1.16453633e+02  3.95058830e+02]
alpha-B2u nocc = 1  HOMO = -0.711088976578407  LUMO = 0.132210314696127
   mo_energy = [-7.11088977e-01  1.32210315e-01  6.75828422e-01  1.30876977e+00
  1.33267689e+00  2.63478344e+00  3.96375856e+00  4.02207570e+00
  9.20864970e+00  1.17048450e+01  1.17882102e+01  3.30569118e+01
  1.03233687e+02  1.03277735e+02  1.16453633e+02  3.95058830e+02]
alpha-B3u nocc = 1  HOMO = -0.611672790240489  LUMO = 0.139928169788713
   mo_energy = [-6.11672790e-01  1.39928170e-01  7.09651550e-01  1.32354690e+00
  1.33577483e+00  2.70191312e+00  3.99984615e+00  4.02960473e+00
  9.28648969e+00  1.17566694e+01  1.17988094e+01  3.31174594e+01
  1.03261208e+02  1.03283246e+02  1.16488452e+02  3.95074287e+02]
beta-Ag nocc = 2  HOMO = -1.07594145606243  LUMO = 0.146345152737362
   mo_energy = [-2.06300901e+01 -1.07594146e+00  1.46345153e-01  4.77796893e-01
  4.80205367e-01  9.16062449e-01  1.55496441e+00  1.57262308e+00
  3.61828497e+00  3.64165565e+00  3.64943828e+00  3.80280649e+00
  4.36289811e+00  4.38023027e+00  1.05618909e+01  1.05996216e+01
  1.06122305e+01  1.26288670e+01  1.26414772e+01  1.64159964e+01
  4.70002478e+01  4.70278123e+01  6.29932523e+01  1.98504575e+02
  1.98523255e+02  2.15588087e+02  8.94407854e+02]
beta-B1g nocc = 0
   mo_energy = [  0.47938517   1.55861867   3.63191598   3.6474938    4.36664309
  10.58388126  10.60907701  12.63826371  47.02090785 198.51858466]
beta-B2g nocc = 0
   mo_energy = [  0.47938517   1.55861867   3.63191598   3.6474938    4.36664309
  10.58388126  10.60907701  12.63826371  47.02090785 198.51858466]
beta-B3g nocc = 0
   mo_energy = [  0.47779689   1.57262308   3.61828497   3.64165565   4.38023027
  10.56189092  10.59962156  12.628867    47.00024782 198.50457538]
beta-Au nocc = 0
   mo_energy = [  1.33374373   4.05126581  11.84078317 103.28985024]
beta-B1u nocc = 0
   mo_energy = [6.24748187e-02 1.97642545e-01 8.02064032e-01 1.32563173e+00
 1.33864360e+00 2.79082091e+00 4.03886502e+00 4.05866803e+00
 9.32988713e+00 1.18214855e+01 1.18523812e+01 3.31180484e+01
 1.03272539e+02 1.03300243e+02 1.16474823e+02 3.95064702e+02]
beta-B2u nocc = 0
   mo_energy = [6.24748187e-02 1.97642545e-01 8.02064032e-01 1.32563173e+00
 1.33864360e+00 2.79082091e+00 4.03886502e+00 4.05866803e+00
 9.32988713e+00 1.18214855e+01 1.18523812e+01 3.31180484e+01
 1.03272539e+02 1.03300243e+02 1.16474823e+02 3.95064702e+02]
beta-B3u nocc = 1  HOMO = -0.521747470081664  LUMO = 0.143080745657885
   mo_energy = [-5.21747470e-01  1.43080746e-01  7.30615893e-01  1.33374373e+00
  1.34026104e+00  2.74226681e+00  4.05126581e+00  4.06112314e+00
  9.32676053e+00  1.18407832e+01  1.18562506e+01  3.31414470e+01
  1.03289850e+02  1.03303709e+02  1.16497905e+02  3.95077256e+02]
multiplicity <S^2> = 2.0093594  2S+1 = 3.0062331
E1 = -103.24676383538844  Ecoul = 28.42907399129949
cycle= 423 E= -74.8176898440889  delta_E= 1.42e-14  |g|= 6.76e-13  |ddm|= 3.22e-13
    CPU time for cycle= 423     10.13 sec, wall time      1.70 sec
diis-norm(errvec)=9.75082e-13
Linear dependence found in DIIS error vectors.
diis-c [-2.89052492e-16  1.25000000e-01  1.25000000e-01  1.25000000e-01
  1.25000000e-01  1.25000000e-01  1.25000000e-01  1.25000000e-01
  1.25000000e-01]
alpha HOMO (B3u) = -0.61167279024048  LUMO (B1u) = 0.132210314696124
alpha irrep_nelec = [2, 0, 0, 0, 0, 1, 1, 1]
beta  irrep_nelec = [2, 0, 0, 0, 0, 0, 0, 1]
alpha-Ag nocc = 2  HOMO = -1.41865475915595  LUMO = 0.135707429709016
   mo_energy = [-2.07083314e+01 -1.41865476e+00  1.35707430e-01  4.60848844e-01
  4.76557838e-01  8.64820970e-01  1.46476250e+00  1.51490081e+00
  3.59058599e+00  3.62706113e+00  3.63948657e+00  3.71231818e+00
  4.20346616e+00  4.28425056e+00  1.04906878e+01  1.05563935e+01
  1.05785997e+01  1.24893422e+01  1.25741494e+01  1.63452135e+01
  4.69376673e+01  4.69963121e+01  6.29643607e+01  1.98489601e+02
  1.98515343e+02  2.15578913e+02  8.94405193e+02]
alpha-B1g nocc = 0
   mo_energy = [  0.47249384   1.50171003   3.61172302   3.63636719   4.26323871
  10.52885397  10.57303322  12.55270297  46.981619   198.50890791]
alpha-B2g nocc = 0
   mo_energy = [  0.47249384   1.50171003   3.61172302   3.63636719   4.26323871
  10.52885397  10.57303322  12.55270297  46.981619   198.50890791]
alpha-B3g nocc = 0
   mo_energy = [  0.46084884   1.4647625    3.59058599   3.62706113   4.20346616
  10.49068777  10.55639349  12.48934217  46.93766725 198.48960053]
alpha-Au nocc = 0
   mo_energy = [  1.3235469    3.99984615  11.75666939 103.26120777]
alpha-B1u nocc = 1  HOMO = -0.711088976578431  LUMO = 0.132210314696124
   mo_energy = [-7.11088977e-01  1.32210315e-01  6.75828422e-01  1.30876977e+00
  1.33267689e+00  2.63478344e+00  3.96375856e+00  4.02207570e+00
  9.20864970e+00  1.17048450e+01  1.17882102e+01  3.30569118e+01
  1.03233687e+02  1.03277735e+02  1.16453633e+02  3.95058830e+02]
alpha-B2u nocc = 1  HOMO = -0.711088976578432  LUMO = 0.13221031469615
   mo_energy = [-7.11088977e-01  1.32210315e-01  6.75828422e-01  1.30876977e+00
  1.33267689e+00  2.63478344e+00  3.96375856e+00  4.02207570e+00
  9.20864970e+00  1.17048450e+01  1.17882102e+01  3.30569118e+01
  1.03233687e+02  1.03277735e+02  1.16453633e+02  3.95058830e+02]
alpha-B3u nocc = 1  HOMO = -0.61167279024048  LUMO = 0.139928169788687
   mo_energy = [-6.11672790e-01  1.39928170e-01  7.09651550e-01  1.32354690e+00
  1.33577483e+00  2.70191312e+00  3.99984615e+00  4.02960473e+00
  9.28648969e+00  1.17566694e+01  1.17988094e+01  3.31174594e+01
  1.03261208e+02  1.03283246e+02  1.16488452e+02  3.95074287e+02]
beta-Ag nocc = 2  HOMO = -1.0759414560624  LUMO = 0.146345152737378
   mo_energy = [-2.06300901e+01 -1.07594146e+00  1.46345153e-01  4.77796893e-01
  4.80205367e-01  9.16062449e-01  1.55496441e+00  1.57262308e+00
  3.61828497e+00  3.64165565e+00  3.64943828e+00  3.80280649e+00
  4.36289811e+00  4.38023027e+00  1.05618909e+01  1.05996216e+01
  1.06122305e+01  1.26288670e+01  1.26414772e+01  1.64159964e+01
  4.70002478e+01  4.70278123e+01  6.29932523e+01  1.98504575e+02
  1.98523255e+02  2.15588087e+02  8.94407854e+02]
beta-B1g nocc = 0
   mo_energy = [  0.47938517   1.55861867   3.63191598   3.6474938    4.36664309
  10.58388126  10.60907701  12.63826371  47.02090785 198.51858466]
beta-B2g nocc = 0
   mo_energy = [  0.47938517   1.55861867   3.63191598   3.6474938    4.36664309
  10.58388126  10.60907701  12.63826371  47.02090785 198.51858466]
beta-B3g nocc = 0
   mo_energy = [  0.47779689   1.57262308   3.61828497   3.64165565   4.38023027
  10.56189092  10.59962156  12.628867    47.00024782 198.50457538]
beta-Au nocc = 0
   mo_energy = [  1.33374373   4.05126581  11.84078317 103.28985024]
beta-B1u nocc = 0
   mo_energy = [6.24748187e-02 1.97642545e-01 8.02064032e-01 1.32563173e+00
 1.33864360e+00 2.79082091e+00 4.03886502e+00 4.05866803e+00
 9.32988713e+00 1.18214855e+01 1.18523812e+01 3.31180484e+01
 1.03272539e+02 1.03300243e+02 1.16474823e+02 3.95064702e+02]
beta-B2u nocc = 0
   mo_energy = [6.24748187e-02 1.97642545e-01 8.02064032e-01 1.32563173e+00
 1.33864360e+00 2.79082091e+00 4.03886502e+00 4.05866803e+00
 9.32988713e+00 1.18214855e+01 1.18523812e+01 3.31180484e+01
 1.03272539e+02 1.03300243e+02 1.16474823e+02 3.95064702e+02]
beta-B3u nocc = 1  HOMO = -0.521747470081661  LUMO = 0.14308074565788
   mo_energy = [-5.21747470e-01  1.43080746e-01  7.30615893e-01  1.33374373e+00
  1.34026104e+00  2.74226681e+00  4.05126581e+00  4.06112314e+00
  9.32676053e+00  1.18407832e+01  1.18562506e+01  3.31414470e+01
  1.03289850e+02  1.03303709e+02  1.16497905e+02  3.95077256e+02]
multiplicity <S^2> = 2.0093594  2S+1 = 3.0062331
E1 = -103.24676383538838  Ecoul = 28.42907399129942
cycle= 424 E= -74.817689844089  delta_E= -1.42e-14  |g|= 9.71e-13  |ddm|= 9.68e-14
    CPU time for cycle= 424     10.27 sec, wall time      1.70 sec
alpha HOMO (B3u) = -0.611672790240484  LUMO (B1u) = 0.132210314696115
alpha irrep_nelec = [2, 0, 0, 0, 0, 1, 1, 1]
beta  irrep_nelec = [2, 0, 0, 0, 0, 0, 0, 1]
alpha-Ag nocc = 2  HOMO = -1.41865475915596  LUMO = 0.135707429709006
   mo_energy = [-2.07083314e+01 -1.41865476e+00  1.35707430e-01  4.60848844e-01
  4.76557838e-01  8.64820970e-01  1.46476250e+00  1.51490081e+00
  3.59058599e+00  3.62706113e+00  3.63948657e+00  3.71231818e+00
  4.20346616e+00  4.28425056e+00  1.04906878e+01  1.05563935e+01
  1.05785997e+01  1.24893422e+01  1.25741494e+01  1.63452135e+01
  4.69376673e+01  4.69963121e+01  6.29643607e+01  1.98489601e+02
  1.98515343e+02  2.15578913e+02  8.94405193e+02]
alpha-B1g nocc = 0
   mo_energy = [  0.47249384   1.50171003   3.61172302   3.63636719   4.26323871
  10.52885397  10.57303322  12.55270297  46.981619   198.50890791]
alpha-B2g nocc = 0
   mo_energy = [  0.47249384   1.50171003   3.61172302   3.63636719   4.26323871
  10.52885397  10.57303322  12.55270297  46.981619   198.50890791]
alpha-B3g nocc = 0
   mo_energy = [  0.46084884   1.4647625    3.59058599   3.62706113   4.20346616
  10.49068777  10.55639349  12.48934217  46.93766725 198.48960053]
alpha-Au nocc = 0
   mo_energy = [  1.3235469    3.99984615  11.75666939 103.26120777]
alpha-B1u nocc = 1  HOMO = -0.711088976578446  LUMO = 0.132210314696115
   mo_energy = [-7.11088977e-01  1.32210315e-01  6.75828422e-01  1.30876977e+00
  1.33267689e+00  2.63478344e+00  3.96375856e+00  4.02207570e+00
  9.20864970e+00  1.17048450e+01  1.17882102e+01  3.30569118e+01
  1.03233687e+02  1.03277735e+02  1.16453633e+02  3.95058830e+02]
alpha-B2u nocc = 1  HOMO = -0.71108897657842  LUMO = 0.132210314696132
   mo_energy = [-7.11088977e-01  1.32210315e-01  6.75828422e-01  1.30876977e+00
  1.33267689e+00  2.63478344e+00  3.96375856e+00  4.02207570e+00
  9.20864970e+00  1.17048450e+01  1.17882102e+01  3.30569118e+01
  1.03233687e+02  1.03277735e+02  1.16453633e+02  3.95058830e+02]
alpha-B3u nocc = 1  HOMO = -0.611672790240484  LUMO = 0.139928169788682
   mo_energy = [-6.11672790e-01  1.39928170e-01  7.09651550e-01  1.32354690e+00
  1.33577483e+00  2.70191312e+00  3.99984615e+00  4.02960473e+00
  9.28648969e+00  1.17566694e+01  1.17988094e+01  3.31174594e+01
  1.03261208e+02  1.03283246e+02  1.16488452e+02  3.95074287e+02]
beta-Ag nocc = 2  HOMO = -1.07594145606242  LUMO = 0.146345152737314
   mo_energy = [-2.06300901e+01 -1.07594146e+00  1.46345153e-01  4.77796893e-01
  4.80205367e-01  9.16062449e-01  1.55496441e+00  1.57262308e+00
  3.61828497e+00  3.64165565e+00  3.64943828e+00  3.80280649e+00
  4.36289811e+00  4.38023027e+00  1.05618909e+01  1.05996216e+01
  1.06122305e+01  1.26288670e+01  1.26414772e+01  1.64159964e+01
  4.70002478e+01  4.70278123e+01  6.29932523e+01  1.98504575e+02
  1.98523255e+02  2.15588087e+02  8.94407854e+02]
beta-B1g nocc = 0
   mo_energy = [  0.47938517   1.55861867   3.63191598   3.6474938    4.36664309
  10.58388126  10.60907701  12.63826371  47.02090785 198.51858466]
beta-B2g nocc = 0
   mo_energy = [  0.47938517   1.55861867   3.63191598   3.6474938    4.36664309
  10.58388126  10.60907701  12.63826371  47.02090785 198.51858466]
beta-B3g nocc = 0
   mo_energy = [  0.47779689   1.57262308   3.61828497   3.64165565   4.38023027
  10.56189092  10.59962156  12.628867    47.00024782 198.50457538]
beta-Au nocc = 0
   mo_energy = [  1.33374373   4.05126581  11.84078317 103.28985024]
beta-B1u nocc = 0
   mo_energy = [6.24748187e-02 1.97642545e-01 8.02064032e-01 1.32563173e+00
 1.33864360e+00 2.79082091e+00 4.03886502e+00 4.05866803e+00
 9.32988713e+00 1.18214855e+01 1.18523812e+01 3.31180484e+01
 1.03272539e+02 1.03300243e+02 1.16474823e+02 3.95064702e+02]
beta-B2u nocc = 0
   mo_energy = [6.24748187e-02 1.97642545e-01 8.02064032e-01 1.32563173e+00
 1.33864360e+00 2.79082091e+00 4.03886502e+00 4.05866803e+00
 9.32988713e+00 1.18214855e+01 1.18523812e+01 3.31180484e+01
 1.03272539e+02 1.03300243e+02 1.16474823e+02 3.95064702e+02]
beta-B3u nocc = 1  HOMO = -0.521747470081683  LUMO = 0.143080745657868
   mo_energy = [-5.21747470e-01  1.43080746e-01  7.30615893e-01  1.33374373e+00
  1.34026104e+00  2.74226681e+00  4.05126581e+00  4.06112314e+00
  9.32676053e+00  1.18407832e+01  1.18562506e+01  3.31414470e+01
  1.03289850e+02  1.03303709e+02  1.16497905e+02  3.95077256e+02]
multiplicity <S^2> = 2.0093594  2S+1 = 3.0062331
E1 = -103.24676383538844  Ecoul = 28.429073991299482
Extra cycle  E= -74.817689844089  delta_E=    0  |g|= 1.13e-12  |ddm|= 9.68e-14
    CPU time for scf_cycle   4065.05 sec, wall time    677.90 sec
    CPU time for SCF   4066.44 sec, wall time    678.07 sec
converged SCF energy = -74.817689844089  <S^2> = 2.0093594  2S+1 = 3.0062331
