#INFO: **** input file is /lustre06/project/6058907/jaafar1/PySCF-MRCC/Oxygen/Neutral/AE/aCV3Z/CC-8/input.py ****
import pyscf
from pyscf import cc, lib, tools, scf, symm, ao2mo
from pyscf.gto.basis import parse_gaussian
from pyscf.cc.mrcc import MRCCInterface

name = 'out'
mol = pyscf.M(
    atom = '''
        O
    ''',
    unit = 'angstrom',
    basis = {
            'O' : parse_gaussian.load('O-aCVTZ-EMSL.gbs', 'O')
    },
    charge = 0,
    spin = 2,
    symmetry = True,
    verbose = 9,
    symmetry_subgroup = 'D2h',
    output = name +'.txt',
    max_memory = 4000,
)
mf = mol.UHF().set(conv_tol=1e-14,max_cycle=9999,ddm_tol=1e-14,direct_scf_tol=1e-14,chkfile=name+'.chk',init_guess='atom',irrep_nelec={'Ag': 4, 'B3u':2 , 'B2u':1 ,'B1u':1 })
mf.kernel()

#pyscf.tools.fcidump.from_chkfile_uhf('FCIdump',name+'.chk',tol=1e-18, float_format='% 0.20E',molpro_orbsym=False,orbsym=None)
pyscf.tools.fcidump.from_scf_uhf(mf,'fort.55',tol=1e-18, float_format='% 0.20E',molpro_orbsym=False)

#MRCCInterface.run_mrcc(mf, fort_file='fort.55', mrcc_input_file='MINP', tol=1e-18, float_format='% 0.20E', molpro_orbsym=False)
#INFO: ******************** input file end ********************


System: uname_result(system='Linux', node='nc31420.narval.calcul.quebec', release='4.18.0-553.34.1.el8_10.x86_64', version='#1 SMP Wed Jan 8 14:44:18 UTC 2025', machine='x86_64')  Threads 4
Python 3.12.4 (main, Jun  7 2024, 23:47:47) [GCC 13.3.0]
numpy 2.1.1  scipy 1.14.1  h5py 3.12.0
Date: Sat Feb  8 09:21:28 2025
PySCF version 2.7.0
PySCF path  /home/jaafar1/projects/def-nike-ab/jaafar1/VENV/MRCCInterface/lib/python3.12/site-packages/pyscf

[CONFIG] ARGPARSE = False
[CONFIG] DEBUG = False
[CONFIG] MAX_MEMORY = 4000
[CONFIG] TMPDIR = /tmp
[CONFIG] UNIT = angstrom
[CONFIG] VERBOSE = 3
[CONFIG] conf_file = None
[INPUT] verbose = 9
[INPUT] max_memory = 4000 
[INPUT] num. atoms = 1
[INPUT] num. electrons = 8
[INPUT] charge = 0
[INPUT] spin (= nelec alpha-beta = 2S) = 2
[INPUT] symmetry True subgroup D2h
[INPUT] Mole.unit = angstrom
[INPUT] Symbol           X                Y                Z      unit          X                Y                Z       unit  Magmom
[INPUT]  1 O      0.000000000000   0.000000000000   0.000000000000 AA    0.000000000000   0.000000000000   0.000000000000 Bohr   0.0
[INPUT] ---------------- BASIS SET ---------------- 
[INPUT] l, kappa, [nprim/nctr], expnt,             c_1 c_2 ...
[INPUT] O
[INPUT] 0    0    [1    /1   ]  21.032               1
[INPUT] 0    0    [10   /2   ]  15330             0.000508 -0.000115
                                2299              0.003929 -0.000895
                                522.4             0.020243 -0.004636
                                147.3             0.079181 -0.018724
                                47.55             0.230687 -0.058463
                                16.76             0.433118 -0.136463
                                6.207             0.35026 -0.17574
                                1.752             0.042728 0.160934
                                0.6882            -0.008154 0.603418
                                0.2384            0.002381 0.378765
[INPUT] 0    0    [1    /1   ]  7.845                1
[INPUT] 0    0    [1    /1   ]  1.752                1
[INPUT] 0    0    [1    /1   ]  0.2384               1
[INPUT] 0    0    [1    /1   ]  0.07376              1
[INPUT] 1    0    [1    /1   ]  57.437               1
[INPUT] 1    0    [1    /1   ]  15.159               1
[INPUT] 1    0    [1    /1   ]  0.7156               1
[INPUT] 1    0    [5    /1   ]  34.46             0.015928
                                7.749             0.09974
                                2.28              0.310492
                                0.7156            0.491026
                                0.214             0.336337
[INPUT] 1    0    [1    /1   ]  0.214                1
[INPUT] 1    0    [1    /1   ]  0.05974              1
[INPUT] 2    0    [1    /1   ]  15.858               1
[INPUT] 2    0    [1    /1   ]  2.314                1
[INPUT] 2    0    [1    /1   ]  0.645                1
[INPUT] 2    0    [1    /1   ]  0.214                1
[INPUT] 3    0    [1    /1   ]  1.428                1
[INPUT] 3    0    [1    /1   ]  0.5                  1

nuclear repulsion = 0
point group symmetry = SO3, use subgroup D2h
symmetry origin: [0. 0. 0.]
symmetry axis x: [1. 0. 0.]
symmetry axis y: [0. 1. 0.]
symmetry axis z: [0. 0. 1.]
num. orbitals of irrep Ag = 15
num. orbitals of irrep B1g = 4
num. orbitals of irrep B2g = 4
num. orbitals of irrep B3g = 4
num. orbitals of irrep Au = 2
num. orbitals of irrep B1u = 10
num. orbitals of irrep B2u = 10
num. orbitals of irrep B3u = 10
number of shells = 18
number of NR pGTOs = 79
number of NR cGTOs = 59
basis = {'O': [[0, [21.032, 1.0]], [0, [15330.0, 0.000508, -0.000115], [2299.0, 0.003929, -0.000895], [522.4, 0.020243, -0.004636], [147.3, 0.079181, -0.018724], [47.55, 0.230687, -0.058463], [16.76, 0.433118, -0.136463], [6.207, 0.35026, -0.17574], [1.752, 0.042728, 0.160934], [0.6882, -0.008154, 0.603418], [0.2384, 0.002381, 0.378765]], [0, [7.845, 1.0]], [0, [1.752, 1.0]], [0, [0.2384, 1.0]], [0, [0.07376, 1.0]], [1, [57.437, 1.0]], [1, [15.159, 1.0]], [1, [0.7156, 1.0]], [1, [34.46, 0.015928], [7.749, 0.09974], [2.28, 0.310492], [0.7156, 0.491026], [0.214, 0.336337]], [1, [0.214, 1.0]], [1, [0.05974, 1.0]], [2, [15.858, 1.0]], [2, [2.314, 1.0]], [2, [0.645, 1.0]], [2, [0.214, 1.0]], [3, [1.428, 1.0]], [3, [0.5, 1.0]]]}
ecp = {}
bas 0, expnt(s) = [21.032]
bas 1, expnt(s) = [1.533e+04 2.299e+03 5.224e+02 1.473e+02 4.755e+01 1.676e+01 6.207e+00
 1.752e+00 6.882e-01 2.384e-01]
bas 2, expnt(s) = [7.845]
bas 3, expnt(s) = [1.752]
bas 4, expnt(s) = [0.2384]
bas 5, expnt(s) = [0.07376]
bas 6, expnt(s) = [57.437]
bas 7, expnt(s) = [15.159]
bas 8, expnt(s) = [0.7156]
bas 9, expnt(s) = [34.46    7.749   2.28    0.7156  0.214 ]
bas 10, expnt(s) = [0.214]
bas 11, expnt(s) = [0.05974]
bas 12, expnt(s) = [15.858]
bas 13, expnt(s) = [2.314]
bas 14, expnt(s) = [0.645]
bas 15, expnt(s) = [0.214]
bas 16, expnt(s) = [1.428]
bas 17, expnt(s) = [0.5]
CPU time:         1.27
arg.atm = [[ 8 20  1 23  0  0]]
arg.bas = [[ 0  0  1  1  0 24 25  0]
 [ 0  0 10  2  0 26 36  0]
 [ 0  0  1  1  0 56 57  0]
 [ 0  0  1  1  0 58 59  0]
 [ 0  0  1  1  0 60 61  0]
 [ 0  0  1  1  0 62 63  0]
 [ 0  1  1  1  0 64 65  0]
 [ 0  1  1  1  0 66 67  0]
 [ 0  1  1  1  0 68 69  0]
 [ 0  1  5  1  0 70 75  0]
 [ 0  1  1  1  0 80 81  0]
 [ 0  1  1  1  0 82 83  0]
 [ 0  2  1  1  0 84 85  0]
 [ 0  2  1  1  0 86 87  0]
 [ 0  2  1  1  0 88 89  0]
 [ 0  2  1  1  0 90 91  0]
 [ 0  3  1  1  0 92 93  0]
 [ 0  3  1  1  0 94 95  0]]
arg.env = [ 0.00000000e+00  0.00000000e+00  0.00000000e+00  0.00000000e+00
  0.00000000e+00  0.00000000e+00  0.00000000e+00  0.00000000e+00
  0.00000000e+00  0.00000000e+00  0.00000000e+00  0.00000000e+00
  0.00000000e+00  0.00000000e+00  0.00000000e+00  0.00000000e+00
  0.00000000e+00  0.00000000e+00  0.00000000e+00  0.00000000e+00
  0.00000000e+00  0.00000000e+00  0.00000000e+00  0.00000000e+00
  2.10320000e+01  2.48127817e+01  1.53300000e+04  2.29900000e+03
  5.22400000e+02  1.47300000e+02  4.75500000e+01  1.67600000e+01
  6.20700000e+00  1.75200000e+00  6.88200000e-01  2.38400000e-01
  1.76821499e+00  3.29572524e+00  5.58845801e+00  8.45839150e+00
  1.05536030e+01  9.06413748e+00  3.47989863e+00  1.64390941e-01
 -1.55658001e-02  2.05236134e-03 -4.00285362e-01 -7.50745117e-01
 -1.27985584e+00 -2.00016556e+00 -2.67460246e+00 -2.85585187e+00
 -1.74601184e+00  6.19175316e-01  1.15191256e+00  3.26486164e-01
  7.84500000e+00  1.18429456e+01  1.75200000e+00  3.84738459e+00
  2.38400000e-01  8.61975084e-01  7.37600000e-02  3.57586163e-01
  5.74370000e+01  4.61290040e+02  1.51590000e+01  8.72614818e+01
  7.15600000e-01  1.92009319e+00  3.44600000e+01  7.74900000e+00
  2.28000000e+00  7.15600000e-01  2.14000000e-01  3.87962258e+00
  3.76192887e+00  2.53777499e+00  9.42815131e-01  1.42815716e-01
  2.14000000e-01  4.24621137e-01  5.97400000e-02  8.61620286e-02
  1.58580000e+01  3.28824456e+02  2.31400000e+00  1.13283134e+01
  6.45000000e-01  1.21132000e+00  2.14000000e-01  1.75692608e-01
  1.42800000e+00  4.39692268e+00  5.00000000e-01  4.14660695e-01]
ecpbas  = []


******** <class 'pyscf.scf.uhf_symm.SymAdaptedUHF'> ********
method = SymAdaptedUHF
initial guess = atom
damping factor = 0
level_shift factor = 0
DIIS = <class 'pyscf.scf.diis.CDIIS'>
diis_start_cycle = 1
diis_space = 8
diis_damp = 0
SCF conv_tol = 1e-14
SCF conv_tol_grad = None
SCF ddm_tol = 1e-14
SCF max_cycles = 9999
direct_scf = True
direct_scf_tol = 1e-14
chkfile to save SCF result = out.chk
max_memory 4000 MB (current use 90 MB)
number electrons alpha = 5  beta = 3
irrep_nelec {'Ag': 4, 'B3u': 2, 'B2u': 1, 'B1u': 1}
Freeze 8 electrons in irreps ['Ag', 'B3u', 'B2u', 'B1u']
    0 free electrons in irreps B1g B2g B3g Au
cond(S) = 592.9846288913116
Set gradient conv threshold to 1e-07
Spherically averaged atomic HF for {'O'}


******** <class 'pyscf.scf.atom_hf.AtomSphAverageRHF'> ********
method = AtomSphAverageRHF
initial guess = minao
damping factor = 0
level_shift factor = 0
DIIS = <class 'pyscf.scf.diis.CDIIS'>
diis_start_cycle = 1
diis_space = 8
diis_damp = 0
SCF conv_tol = 1e-09
SCF conv_tol_grad = None
SCF ddm_tol = 1e-10
SCF max_cycles = 50
direct_scf = True
direct_scf_tol = 1e-13
chkfile to save SCF result = /tmp/tmpylz33eif
max_memory 4000 MB (current use 90 MB)
atom = O
Set gradient conv threshold to 3.16228e-05
Initial guess from minao.
Nelec from initial guess = 7.999645577852298
E1 = -103.08564136277478  E_coul = 28.80377187906809
init E= -74.2818694837067
l = 0  e_0 = -20.7013869
l = 0  e_1 = -1.26317647
l = 0  e_2 = 0.156151805
l = 0  e_3 = 1.09561719
l = 0  e_4 = 5.12599563
l = 0  e_5 = 27.9523001
l = 0  e_6 = 148.236535
l = 1  e_0 = -0.390334606
l = 1  e_1 = 0.162880429
l = 1  e_2 = 0.915691472
l = 1  e_3 = 3.99524755
l = 1  e_4 = 25.897018
l = 1  e_5 = 138.102977
l = 2  e_0 = 0.641295473
l = 2  e_1 = 2.11192226
l = 2  e_2 = 6.91589745
l = 2  e_3 = 43.7877657
l = 3  e_0 = 2.02343898
l = 3  e_1 = 6.39933653
    CPU time for initialize scf      0.18 sec, wall time      0.35 sec
l = 0  e_0 = -20.7013869
l = 0  e_1 = -1.26317647
l = 0  e_2 = 0.156151805
l = 0  e_3 = 1.09561719
l = 0  e_4 = 5.12599563
l = 0  e_5 = 27.9523001
l = 0  e_6 = 148.236535
l = 1  e_0 = -0.390334606
l = 1  e_1 = 0.162880429
l = 1  e_2 = 0.915691472
l = 1  e_3 = 3.99524755
l = 1  e_4 = 25.897018
l = 1  e_5 = 138.102977
l = 2  e_0 = 0.641295473
l = 2  e_1 = 2.11192226
l = 2  e_2 = 6.91589745
l = 2  e_3 = 43.7877657
l = 3  e_0 = 2.02343898
l = 3  e_1 = 6.39933653
l = 0  occ = 2 + 0
l = 1  occ = 0 + 1.333
l = 2  occ = 0 + 0
l = 3  occ = 0 + 0
E1 = -102.36501171028166  E_coul = 28.074371713629592
cycle= 1 E= -74.2906399966521  delta_E= -0.00877  |g|=    0  |ddm|= 0.148
    CPU time for cycle= 1      0.01 sec, wall time      0.00 sec
diis-norm(errvec)=0.137835
diis-c [-0.0189986  1.       ]
l = 0  e_0 = -20.8797622
l = 0  e_1 = -1.33411451
l = 0  e_2 = 0.150003946
l = 0  e_3 = 1.06542537
l = 0  e_4 = 5.04403284
l = 0  e_5 = 27.8009588
l = 0  e_6 = 148.051321
l = 1  e_0 = -0.447732774
l = 1  e_1 = 0.159636662
l = 1  e_2 = 0.88935001
l = 1  e_3 = 3.91237537
l = 1  e_4 = 25.7375937
l = 1  e_5 = 137.91533
l = 2  e_0 = 0.631709556
l = 2  e_1 = 2.07390693
l = 2  e_2 = 6.82648025
l = 2  e_3 = 43.6211211
l = 3  e_0 = 2.00640443
l = 3  e_1 = 6.33872015
l = 0  occ = 2 + 0
l = 1  occ = 0 + 1.333
l = 2  occ = 0 + 0
l = 3  occ = 0 + 0
E1 = -102.74175688767602  E_coul = 28.449817438810864
cycle= 2 E= -74.2919394488652  delta_E= -0.0013  |g|=    0  |ddm|= 0.065
    CPU time for cycle= 2      0.04 sec, wall time      0.03 sec
diis-norm(errvec)=0.0599662
diis-c [-3.06929537e-04  2.95515653e-01  7.04484347e-01]
l = 0  e_0 = -20.8137564
l = 0  e_1 = -1.31128506
l = 0  e_2 = 0.152010353
l = 0  e_3 = 1.07498096
l = 0  e_4 = 5.07274457
l = 0  e_5 = 27.8565549
l = 0  e_6 = 148.119986
l = 1  e_0 = -0.425904026
l = 1  e_1 = 0.160974502
l = 1  e_2 = 0.899396795
l = 1  e_3 = 3.94322655
l = 1  e_4 = 25.7963435
l = 1  e_5 = 137.984766
l = 2  e_0 = 0.635151756
l = 2  e_1 = 2.08773076
l = 2  e_2 = 6.85936681
l = 2  e_3 = 43.6829532
l = 3  e_0 = 2.0124609
l = 3  e_1 = 6.3606902
l = 0  occ = 2 + 0
l = 1  occ = 0 + 1.333
l = 2  occ = 0 + 0
l = 3  occ = 0 + 0
E1 = -102.60753353288969  E_coul = 28.315195824745118
cycle= 3 E= -74.2923377081446  delta_E= -0.000398  |g|=    0  |ddm|= 0.0269
    CPU time for cycle= 3      0.02 sec, wall time      0.00 sec
diis-norm(errvec)=0.00671987
diis-c [-7.69710191e-07 -1.01683703e-01 -1.17555732e-01  1.21923944e+00]
l = 0  e_0 = -20.8171434
l = 0  e_1 = -1.31344527
l = 0  e_2 = 0.151811039
l = 0  e_3 = 1.07408766
l = 0  e_4 = 5.07086922
l = 0  e_5 = 27.853512
l = 0  e_6 = 148.116887
l = 1  e_0 = -0.426811671
l = 1  e_1 = 0.160932576
l = 1  e_2 = 0.898960093
l = 1  e_3 = 3.9417426
l = 1  e_4 = 25.793244
l = 1  e_5 = 137.981474
l = 2  e_0 = 0.63494843
l = 2  e_1 = 2.08700954
l = 2  e_2 = 6.85767183
l = 2  e_3 = 43.6796759
l = 3  e_0 = 2.0121122
l = 3  e_1 = 6.35953424
l = 0  occ = 2 + 0
l = 1  occ = 0 + 1.333
l = 2  occ = 0 + 0
l = 3  occ = 0 + 0
E1 = -102.61554213519807  E_coul = 28.323200033981685
cycle= 4 E= -74.2923421012164  delta_E= -4.39e-06  |g|=    0  |ddm|= 0.00613
    CPU time for cycle= 4      0.02 sec, wall time      0.00 sec
diis-norm(errvec)=0.000176746
diis-c [-4.64011104e-09  4.21903688e-03  5.56247569e-03 -7.05628345e-02
  1.06078132e+00]
l = 0  e_0 = -20.8172436
l = 0  e_1 = -1.31351182
l = 0  e_2 = 0.151790743
l = 0  e_3 = 1.07404265
l = 0  e_4 = 5.0707935
l = 0  e_5 = 27.8534136
l = 0  e_6 = 148.116803
l = 1  e_0 = -0.426853641
l = 1  e_1 = 0.160924342
l = 1  e_2 = 0.898923147
l = 1  e_3 = 3.94167386
l = 1  e_4 = 25.7931469
l = 1  e_5 = 137.981384
l = 2  e_0 = 0.634925589
l = 2  e_1 = 2.08696386
l = 2  e_2 = 6.85759629
l = 2  e_3 = 43.6795724
l = 3  e_0 = 2.01207707
l = 3  e_1 = 6.35947096
l = 0  occ = 2 + 0
l = 1  occ = 0 + 1.333
l = 2  occ = 0 + 0
l = 3  occ = 0 + 0
E1 = -102.61575658078351  E_coul = 28.32341447481379
cycle= 5 E= -74.2923421059697  delta_E= -4.75e-09  |g|=    0  |ddm|= 0.000243
    CPU time for cycle= 5      0.02 sec, wall time      0.00 sec
diis-norm(errvec)=1.13033e-05
diis-c [-1.40151513e-11 -1.21950157e-04 -2.98223099e-04  4.49908501e-03
 -1.68368929e-01  1.16429002e+00]
l = 0  e_0 = -20.8172435
l = 0  e_1 = -1.31351439
l = 0  e_2 = 0.151789016
l = 0  e_3 = 1.07404104
l = 0  e_4 = 5.07079225
l = 0  e_5 = 27.8534136
l = 0  e_6 = 148.116802
l = 1  e_0 = -0.426855006
l = 1  e_1 = 0.160923806
l = 1  e_2 = 0.898921282
l = 1  e_3 = 3.94167258
l = 1  e_4 = 25.7931469
l = 1  e_5 = 137.981384
l = 2  e_0 = 0.634923422
l = 2  e_1 = 2.08696174
l = 2  e_2 = 6.85759518
l = 2  e_3 = 43.6795727
l = 3  e_0 = 2.01207415
l = 3  e_1 = 6.35946892
l = 0  occ = 2 + 0
l = 1  occ = 0 + 1.333
l = 2  occ = 0 + 0
l = 3  occ = 0 + 0
E1 = -102.6157379332827  E_coul = 28.32339582725033
cycle= 6 E= -74.2923421060324  delta_E= -6.27e-11  |g|=    0  |ddm|= 2.14e-05
    CPU time for cycle= 6      0.02 sec, wall time      0.00 sec
diis-norm(errvec)=1.79631e-06
diis-c [-1.67076430e-13 -1.62261641e-05  1.01368728e-05 -1.12012633e-05
  6.13111778e-03 -8.02536949e-02  1.07413987e+00]
l = 0  e_0 = -20.817245
l = 0  e_1 = -1.31351529
l = 0  e_2 = 0.151788849
l = 0  e_3 = 1.07404056
l = 0  e_4 = 5.07079123
l = 0  e_5 = 27.8534122
l = 0  e_6 = 148.116801
l = 1  e_0 = -0.426855765
l = 1  e_1 = 0.160923735
l = 1  e_2 = 0.898920834
l = 1  e_3 = 3.94167157
l = 1  e_4 = 25.7931455
l = 1  e_5 = 137.981382
l = 2  e_0 = 0.63492316
l = 2  e_1 = 2.08696111
l = 2  e_2 = 6.85759405
l = 2  e_3 = 43.6795712
l = 3  e_0 = 2.01207373
l = 3  e_1 = 6.35946799
l = 0  occ = 2 + 0
l = 1  occ = 0 + 1.333
l = 2  occ = 0 + 0
l = 3  occ = 0 + 0
E1 = -102.61574056461579  E_coul = 28.32339845858304
cycle= 7 E= -74.2923421060327  delta_E= -3.69e-13  |g|=    0  |ddm|= 1.16e-06
    CPU time for cycle= 7      0.02 sec, wall time      0.00 sec
diis-norm(errvec)=4.74642e-08
diis-c [-3.15678410e-16  2.30595943e-06  1.09373628e-06 -2.25025685e-05
  2.99419079e-04  1.90272622e-03 -1.02891495e-01  1.10070845e+00]
l = 0  e_0 = -20.817245
l = 0  e_1 = -1.3135153
l = 0  e_2 = 0.151788846
l = 0  e_3 = 1.07404055
l = 0  e_4 = 5.07079122
l = 0  e_5 = 27.8534122
l = 0  e_6 = 148.116801
l = 1  e_0 = -0.426855777
l = 1  e_1 = 0.160923733
l = 1  e_2 = 0.898920826
l = 1  e_3 = 3.94167156
l = 1  e_4 = 25.7931454
l = 1  e_5 = 137.981382
l = 2  e_0 = 0.634923155
l = 2  e_1 = 2.0869611
l = 2  e_2 = 6.85759404
l = 2  e_3 = 43.6795712
l = 3  e_0 = 2.01207372
l = 3  e_1 = 6.35946797
l = 0  occ = 2 + 0
l = 1  occ = 0 + 1.333
l = 2  occ = 0 + 0
l = 3  occ = 0 + 0
E1 = -102.61574057048084  E_coul = 28.323398464448236
cycle= 8 E= -74.2923421060326  delta_E= 1.42e-13  |g|=    0  |ddm|= 3.68e-08
    CPU time for cycle= 8      0.02 sec, wall time      0.00 sec
diis-norm(errvec)=3.39372e-09
Linear dependence found in DIIS error vectors.
diis-c [-8.36352771e-17  1.07776736e-06  5.40540767e-07 -1.08380838e-05
  1.56755599e-04  7.56228016e-04 -4.65554634e-02  4.95451802e-01
  5.50199898e-01]
l = 0  e_0 = -20.817245
l = 0  e_1 = -1.3135153
l = 0  e_2 = 0.151788846
l = 0  e_3 = 1.07404055
l = 0  e_4 = 5.07079122
l = 0  e_5 = 27.8534122
l = 0  e_6 = 148.116801
l = 1  e_0 = -0.426855776
l = 1  e_1 = 0.160923733
l = 1  e_2 = 0.898920826
l = 1  e_3 = 3.94167156
l = 1  e_4 = 25.7931454
l = 1  e_5 = 137.981382
l = 2  e_0 = 0.634923155
l = 2  e_1 = 2.0869611
l = 2  e_2 = 6.85759404
l = 2  e_3 = 43.6795712
l = 3  e_0 = 2.01207372
l = 3  e_1 = 6.35946797
l = 0  occ = 2 + 0
l = 1  occ = 0 + 1.333
l = 2  occ = 0 + 0
l = 3  occ = 0 + 0
E1 = -102.61574056794092  E_coul = 28.32339846190827
cycle= 9 E= -74.2923421060326  delta_E= -4.26e-14  |g|=    0  |ddm|= 9.17e-10
    CPU time for cycle= 9      0.02 sec, wall time      0.00 sec
diis-norm(errvec)=1.69485e-09
Linear dependence found in DIIS error vectors.
diis-c [-7.87672157e-16  3.53304304e-01 -4.73948750e-07  2.34508017e-06
  2.83313845e-05  6.55015536e-04 -2.74515532e-02  3.20324646e-01
  3.53137386e-01]
l = 0  e_0 = -20.817245
l = 0  e_1 = -1.3135153
l = 0  e_2 = 0.151788846
l = 0  e_3 = 1.07404055
l = 0  e_4 = 5.07079122
l = 0  e_5 = 27.8534122
l = 0  e_6 = 148.116801
l = 1  e_0 = -0.426855776
l = 1  e_1 = 0.160923734
l = 1  e_2 = 0.898920826
l = 1  e_3 = 3.94167156
l = 1  e_4 = 25.7931454
l = 1  e_5 = 137.981382
l = 2  e_0 = 0.634923155
l = 2  e_1 = 2.0869611
l = 2  e_2 = 6.85759404
l = 2  e_3 = 43.6795712
l = 3  e_0 = 2.01207372
l = 3  e_1 = 6.35946797
l = 0  occ = 2 + 0
l = 1  occ = 0 + 1.333
l = 2  occ = 0 + 0
l = 3  occ = 0 + 0
E1 = -102.61574056493632  E_coul = 28.323398458903664
cycle= 10 E= -74.2923421060326  delta_E=    0  |g|=    0  |ddm|= 8.27e-10
    CPU time for cycle= 10      0.02 sec, wall time      0.00 sec
diis-norm(errvec)=8.0621e-10
Linear dependence found in DIIS error vectors.
diis-c [-2.37921323e-16  2.56670897e-01  2.56566705e-01 -1.65379037e-06
  1.71880373e-04 -8.13379710e-04 -1.14550110e-02  2.42262725e-01
  2.56597837e-01]
l = 0  e_0 = -20.817245
l = 0  e_1 = -1.3135153
l = 0  e_2 = 0.151788846
l = 0  e_3 = 1.07404055
l = 0  e_4 = 5.07079122
l = 0  e_5 = 27.8534122
l = 0  e_6 = 148.116801
l = 1  e_0 = -0.426855776
l = 1  e_1 = 0.160923734
l = 1  e_2 = 0.898920826
l = 1  e_3 = 3.94167156
l = 1  e_4 = 25.7931454
l = 1  e_5 = 137.981382
l = 2  e_0 = 0.634923155
l = 2  e_1 = 2.0869611
l = 2  e_2 = 6.85759404
l = 2  e_3 = 43.6795712
l = 3  e_0 = 2.01207372
l = 3  e_1 = 6.35946797
l = 0  occ = 2 + 0
l = 1  occ = 0 + 1.333
l = 2  occ = 0 + 0
l = 3  occ = 0 + 0
E1 = -102.61574056598265  E_coul = 28.32339845994994
cycle= 11 E= -74.2923421060327  delta_E= -5.68e-14  |g|=    0  |ddm|= 2.82e-10
    CPU time for cycle= 11      0.02 sec, wall time      0.00 sec
diis-norm(errvec)=8.54693e-10
Linear dependence found in DIIS error vectors.
diis-c [-7.61900617e-16  2.03905921e-01  2.03806388e-01  2.03847692e-01
  8.44204625e-05 -3.48276572e-04 -8.95862874e-03  1.93782533e-01
  2.03879951e-01]
l = 0  e_0 = -20.817245
l = 0  e_1 = -1.3135153
l = 0  e_2 = 0.151788846
l = 0  e_3 = 1.07404055
l = 0  e_4 = 5.07079122
l = 0  e_5 = 27.8534122
l = 0  e_6 = 148.116801
l = 1  e_0 = -0.426855776
l = 1  e_1 = 0.160923734
l = 1  e_2 = 0.898920826
l = 1  e_3 = 3.94167156
l = 1  e_4 = 25.7931454
l = 1  e_5 = 137.981382
l = 2  e_0 = 0.634923155
l = 2  e_1 = 2.0869611
l = 2  e_2 = 6.85759404
l = 2  e_3 = 43.6795712
l = 3  e_0 = 2.01207372
l = 3  e_1 = 6.35946797
l = 0  occ = 2 + 0
l = 1  occ = 0 + 1.333
l = 2  occ = 0 + 0
l = 3  occ = 0 + 0
E1 = -102.61574056391345  E_coul = 28.323398457880764
cycle= 12 E= -74.2923421060327  delta_E= 1.42e-14  |g|=    0  |ddm|= 8.01e-10
    CPU time for cycle= 12      0.02 sec, wall time      0.00 sec
diis-norm(errvec)=1.24358e-09
Linear dependence found in DIIS error vectors.
diis-c [-7.49377490e-16  1.67393293e-01  1.67244842e-01  1.67292437e-01
  1.67180726e-01  2.20474439e-05 -1.85573426e-03  1.65208690e-01
  1.67513699e-01]
l = 0  e_0 = -20.817245
l = 0  e_1 = -1.3135153
l = 0  e_2 = 0.151788846
l = 0  e_3 = 1.07404055
l = 0  e_4 = 5.07079122
l = 0  e_5 = 27.8534122
l = 0  e_6 = 148.116801
l = 1  e_0 = -0.426855775
l = 1  e_1 = 0.160923734
l = 1  e_2 = 0.898920827
l = 1  e_3 = 3.94167156
l = 1  e_4 = 25.7931454
l = 1  e_5 = 137.981382
l = 2  e_0 = 0.634923156
l = 2  e_1 = 2.0869611
l = 2  e_2 = 6.85759404
l = 2  e_3 = 43.6795712
l = 3  e_0 = 2.01207372
l = 3  e_1 = 6.35946797
l = 0  occ = 2 + 0
l = 1  occ = 0 + 1.333
l = 2  occ = 0 + 0
l = 3  occ = 0 + 0
E1 = -102.61574056334416  E_coul = 28.323398457311544
cycle= 13 E= -74.2923421060326  delta_E= 7.11e-14  |g|=    0  |ddm|= 1.05e-09
    CPU time for cycle= 13      0.02 sec, wall time      0.00 sec
diis-norm(errvec)=1.75619e-09
Linear dependence found in DIIS error vectors.
diis-c [-1.08646232e-16  1.43423038e-01  1.43294636e-01  1.43335670e-01
  1.43238672e-01  1.43217633e-01 -1.57914287e-03  1.41543110e-01
  1.43526384e-01]
l = 0  e_0 = -20.817245
l = 0  e_1 = -1.3135153
l = 0  e_2 = 0.151788846
l = 0  e_3 = 1.07404055
l = 0  e_4 = 5.07079122
l = 0  e_5 = 27.8534122
l = 0  e_6 = 148.116801
l = 1  e_0 = -0.426855775
l = 1  e_1 = 0.160923734
l = 1  e_2 = 0.898920827
l = 1  e_3 = 3.94167156
l = 1  e_4 = 25.7931454
l = 1  e_5 = 137.981382
l = 2  e_0 = 0.634923156
l = 2  e_1 = 2.0869611
l = 2  e_2 = 6.85759404
l = 2  e_3 = 43.6795712
l = 3  e_0 = 2.01207372
l = 3  e_1 = 6.35946797
l = 0  occ = 2 + 0
l = 1  occ = 0 + 1.333
l = 2  occ = 0 + 0
l = 3  occ = 0 + 0
E1 = -102.61574056390766  E_coul = 28.32339845787511
cycle= 14 E= -74.2923421060325  delta_E= 7.11e-14  |g|=    0  |ddm|= 1.47e-10
    CPU time for cycle= 14      0.02 sec, wall time      0.00 sec
diis-norm(errvec)=1.43771e-09
Linear dependence found in DIIS error vectors.
diis-c [-4.1157153e-16  1.2500000e-01  1.2500000e-01  1.2500000e-01
  1.2500000e-01  1.2500000e-01  1.2500000e-01  1.2500000e-01
  1.2500000e-01]
l = 0  e_0 = -20.817245
l = 0  e_1 = -1.3135153
l = 0  e_2 = 0.151788846
l = 0  e_3 = 1.07404055
l = 0  e_4 = 5.07079122
l = 0  e_5 = 27.8534122
l = 0  e_6 = 148.116801
l = 1  e_0 = -0.426855776
l = 1  e_1 = 0.160923734
l = 1  e_2 = 0.898920826
l = 1  e_3 = 3.94167156
l = 1  e_4 = 25.7931454
l = 1  e_5 = 137.981382
l = 2  e_0 = 0.634923155
l = 2  e_1 = 2.0869611
l = 2  e_2 = 6.85759404
l = 2  e_3 = 43.6795712
l = 3  e_0 = 2.01207372
l = 3  e_1 = 6.35946797
l = 0  occ = 2 + 0
l = 1  occ = 0 + 1.333
l = 2  occ = 0 + 0
l = 3  occ = 0 + 0
E1 = -102.61574056645502  E_coul = 28.323398460422393
cycle= 15 E= -74.2923421060326  delta_E= -7.11e-14  |g|=    0  |ddm|= 5.01e-10
    CPU time for cycle= 15      0.02 sec, wall time      0.00 sec
diis-norm(errvec)=1.12052e-09
Linear dependence found in DIIS error vectors.
diis-c [-2.89052492e-16  1.25000000e-01  1.25000000e-01  1.25000000e-01
  1.25000000e-01  1.25000000e-01  1.25000000e-01  1.25000000e-01
  1.25000000e-01]
l = 0  e_0 = -20.817245
l = 0  e_1 = -1.3135153
l = 0  e_2 = 0.151788846
l = 0  e_3 = 1.07404055
l = 0  e_4 = 5.07079122
l = 0  e_5 = 27.8534122
l = 0  e_6 = 148.116801
l = 1  e_0 = -0.426855776
l = 1  e_1 = 0.160923734
l = 1  e_2 = 0.898920826
l = 1  e_3 = 3.94167156
l = 1  e_4 = 25.7931454
l = 1  e_5 = 137.981382
l = 2  e_0 = 0.634923155
l = 2  e_1 = 2.0869611
l = 2  e_2 = 6.85759404
l = 2  e_3 = 43.6795712
l = 3  e_0 = 2.01207372
l = 3  e_1 = 6.35946797
l = 0  occ = 2 + 0
l = 1  occ = 0 + 1.333
l = 2  occ = 0 + 0
l = 3  occ = 0 + 0
E1 = -102.61574056528916  E_coul = 28.32339845925658
cycle= 16 E= -74.2923421060326  delta_E= 4.26e-14  |g|=    0  |ddm|= 7.94e-10
    CPU time for cycle= 16      0.02 sec, wall time      0.00 sec
diis-norm(errvec)=2.06911e-10
Linear dependence found in DIIS error vectors.
diis-c [-2.89052492e-16  1.25000000e-01  1.25000000e-01  1.25000000e-01
  1.25000000e-01  1.25000000e-01  1.25000000e-01  1.25000000e-01
  1.25000000e-01]
l = 0  e_0 = -20.817245
l = 0  e_1 = -1.3135153
l = 0  e_2 = 0.151788846
l = 0  e_3 = 1.07404055
l = 0  e_4 = 5.07079122
l = 0  e_5 = 27.8534122
l = 0  e_6 = 148.116801
l = 1  e_0 = -0.426855776
l = 1  e_1 = 0.160923734
l = 1  e_2 = 0.898920826
l = 1  e_3 = 3.94167156
l = 1  e_4 = 25.7931454
l = 1  e_5 = 137.981382
l = 2  e_0 = 0.634923155
l = 2  e_1 = 2.0869611
l = 2  e_2 = 6.85759404
l = 2  e_3 = 43.6795712
l = 3  e_0 = 2.01207372
l = 3  e_1 = 6.35946797
l = 0  occ = 2 + 0
l = 1  occ = 0 + 1.333
l = 2  occ = 0 + 0
l = 3  occ = 0 + 0
E1 = -102.61574056564152  E_coul = 28.32339845960881
cycle= 17 E= -74.2923421060327  delta_E= -1.28e-13  |g|=    0  |ddm|= 7.35e-11
    CPU time for cycle= 17      0.02 sec, wall time      0.00 sec
l = 0  e_0 = -20.817245
l = 0  e_1 = -1.3135153
l = 0  e_2 = 0.151788846
l = 0  e_3 = 1.07404055
l = 0  e_4 = 5.07079122
l = 0  e_5 = 27.8534122
l = 0  e_6 = 148.116801
l = 1  e_0 = -0.426855776
l = 1  e_1 = 0.160923734
l = 1  e_2 = 0.898920826
l = 1  e_3 = 3.94167156
l = 1  e_4 = 25.7931454
l = 1  e_5 = 137.981382
l = 2  e_0 = 0.634923155
l = 2  e_1 = 2.0869611
l = 2  e_2 = 6.85759404
l = 2  e_3 = 43.6795712
l = 3  e_0 = 2.01207372
l = 3  e_1 = 6.35946797
l = 0  occ = 2 + 0
l = 1  occ = 0 + 1.333
l = 2  occ = 0 + 0
l = 3  occ = 0 + 0
E1 = -102.61574056538285  E_coul = 28.323398459350127
Extra cycle  E= -74.2923421060327  delta_E= -1.42e-14  |g|=    0  |ddm|= 7.35e-11
    CPU time for scf_cycle      0.50 sec, wall time      0.46 sec
    CPU time for SCF      0.51 sec, wall time      0.46 sec
Atomic HF for atom  O  converged. SCF energy = -74.2923421060327

Atom O, E = -74.292342106
Nelec from initial guess = (np.float64(4.000000000000003), np.float64(4.000000000000003))
E1 = -102.61574056538285  Ecoul = 28.32339845935012
init E= -74.2923421060327
    CPU time for initialize scf      0.64 sec, wall time      0.79 sec
alpha HOMO (B1u) = -0.426855775697605  LUMO (Ag) = 0.151788846292753
alpha irrep_nelec = [2, 0, 0, 0, 0, 1, 1, 1]
beta  irrep_nelec = [2, 0, 0, 0, 0, 0, 0, 1]
alpha-Ag nocc = 2  HOMO = -1.31351530066841  LUMO = 0.151788846292753
   mo_energy = [-20.81724497  -1.3135153    0.15178885   0.63492316   0.63492316
   1.07404055   2.0869611    2.0869611    5.07079122   6.85759404
   6.85759404  27.8534122   43.67957123  43.67957123 148.11680074]
alpha-B1g nocc = 0
   mo_energy = [ 0.63492316  2.0869611   6.85759404 43.67957123]
alpha-B2g nocc = 0
   mo_energy = [ 0.63492316  2.0869611   6.85759404 43.67957123]
alpha-B3g nocc = 0
   mo_energy = [ 0.63492316  2.0869611   6.85759404 43.67957123]
alpha-Au nocc = 0
   mo_energy = [2.01207372 6.35946797]
alpha-B1u nocc = 1  HOMO = -0.426855775697605  LUMO = 0.160923733530454
   mo_energy = [ -0.42685578   0.16092373   0.89892083   2.01207372   2.01207372
   3.94167156   6.35946797   6.35946797  25.79314545 137.98138222]
alpha-B2u nocc = 1  HOMO = -0.426855775697609  LUMO = 0.160923733530454
   mo_energy = [ -0.42685578   0.16092373   0.89892083   2.01207372   2.01207372
   3.94167156   6.35946797   6.35946797  25.79314545 137.98138222]
alpha-B3u nocc = 1  HOMO = -0.42685577569761  LUMO = 0.160923733530453
   mo_energy = [ -0.42685578   0.16092373   0.89892083   2.01207372   2.01207372
   3.94167156   6.35946797   6.35946797  25.79314545 137.98138222]
beta-Ag nocc = 2  HOMO = -1.31351530066841  LUMO = 0.151788846292753
   mo_energy = [-20.81724497  -1.3135153    0.15178885   0.63492316   0.63492316
   1.07404055   2.0869611    2.0869611    5.07079122   6.85759404
   6.85759404  27.8534122   43.67957123  43.67957123 148.11680074]
beta-B1g nocc = 0
   mo_energy = [ 0.63492316  2.0869611   6.85759404 43.67957123]
beta-B2g nocc = 0
   mo_energy = [ 0.63492316  2.0869611   6.85759404 43.67957123]
beta-B3g nocc = 0
   mo_energy = [ 0.63492316  2.0869611   6.85759404 43.67957123]
beta-Au nocc = 0
   mo_energy = [2.01207372 6.35946797]
beta-B1u nocc = 0
   mo_energy = [ -0.42685578   0.16092373   0.89892083   2.01207372   2.01207372
   3.94167156   6.35946797   6.35946797  25.79314545 137.98138222]
beta-B2u nocc = 0
   mo_energy = [ -0.42685578   0.16092373   0.89892083   2.01207372   2.01207372
   3.94167156   6.35946797   6.35946797  25.79314545 137.98138222]
beta-B3u nocc = 1  HOMO = -0.42685577569761  LUMO = 0.160923733530453
   mo_energy = [ -0.42685578   0.16092373   0.89892083   2.01207372   2.01207372
   3.94167156   6.35946797   6.35946797  25.79314545 137.98138222]
multiplicity <S^2> = 2  2S+1 = 3
E1 = -102.6157405655081  Ecoul = 27.825936529452058
cycle= 1 E= -74.789804036056  delta_E= -0.497  |g|= 0.204  |ddm|= 0.602
    CPU time for cycle= 1      0.08 sec, wall time      0.10 sec
diis-norm(errvec)=0.288769
diis-c [-0.08338737  1.        ]
alpha HOMO (B3u) = -0.660150974550074  LUMO (Ag) = 0.14343340379262
alpha irrep_nelec = [2, 0, 0, 0, 0, 1, 1, 1]
beta  irrep_nelec = [2, 0, 0, 0, 0, 0, 0, 1]
alpha-Ag nocc = 2  HOMO = -1.46719497777983  LUMO = 0.14343340379262
   mo_energy = [-2.08495688e+01 -1.46719498e+00  1.43433404e-01  6.06413198e-01
  6.30547088e-01  1.04583498e+00  2.00587309e+00  2.06637829e+00
  5.03144994e+00  6.75734716e+00  6.84307309e+00  2.78317260e+01
  4.36274649e+01  4.36842265e+01  1.48111127e+02]
alpha-B1g nocc = 0
   mo_energy = [ 0.62459794  2.05086463  6.82093387 43.66996194]
alpha-B2g nocc = 0
   mo_energy = [ 0.62459794  2.05086463  6.82093387 43.66996194]
alpha-B3g nocc = 0
   mo_energy = [ 0.6064132   2.00587309  6.75734716 43.62746488]
alpha-Au nocc = 0
   mo_energy = [1.9965516  6.32504135]
alpha-B1u nocc = 1  HOMO = -0.738042321449271  LUMO = 0.150604305285194
   mo_energy = [ -0.73804232   0.15060431   0.84683537   1.97334156   2.01064289
   3.86433851   6.27943505   6.35273023  25.74847446 137.96659956]
alpha-B2u nocc = 1  HOMO = -0.738042321449267  LUMO = 0.150604305285193
   mo_energy = [ -0.73804232   0.15060431   0.84683537   1.97334156   2.01064289
   3.86433851   6.27943505   6.35273023  25.74847446 137.96659956]
alpha-B3u nocc = 1  HOMO = -0.660150974550074  LUMO = 0.159515424783715
   mo_energy = [ -0.66015097   0.15951542   0.88546539   1.9965516    2.01537379
   3.93468521   6.32504135   6.36202054  25.80383601 137.99290845]
beta-Ag nocc = 2  HOMO = -1.16273798051405  LUMO = 0.159696250109747
   mo_energy = [-20.78513811  -1.16273798   0.15969625   0.65028942   0.65132056
   1.10284778   2.12876851   2.14869459   5.11007546   6.91369777
   6.91845672  27.87503883  43.69312221  43.71360641 148.12247564]
beta-B1g nocc = 0
   mo_energy = [ 0.65028432  2.13306793  6.91462608 43.70846564]
beta-B2g nocc = 0
   mo_energy = [ 0.65028432  2.13306793  6.91462608 43.70846564]
beta-B3g nocc = 0
   mo_energy = [ 0.65132056  2.14869459  6.91845672 43.69312221]
beta-Au nocc = 0
   mo_energy = [2.02753714 6.3939533 ]
beta-B1u nocc = 0
   mo_energy = [2.87302090e-02 1.98942002e-01 9.71801649e-01 2.01681502e+00
 2.03401929e+00 4.01031141e+00 6.37579313e+00 6.40489024e+00
 2.58171989e+01 1.37981891e+02]
beta-B2u nocc = 0
   mo_energy = [2.87302090e-02 1.98942002e-01 9.71801649e-01 2.01681502e+00
 2.03401929e+00 4.01031141e+00 6.37579313e+00 6.40489024e+00
 2.58171989e+01 1.37981891e+02]
beta-B3u nocc = 1  HOMO = -0.582554070564404  LUMO = 0.163005169842082
   mo_energy = [ -0.58255407   0.16300517   0.90791727   2.02753714   2.03618504
   3.97092004   6.3939533    6.40854249  25.82376238 137.99840885]
multiplicity <S^2> = 2.0024889  2S+1 = 3.0016588
E1 = -103.35726927260251  Ecoul = 28.547108996592637
cycle= 2 E= -74.8101602760099  delta_E= -0.0204  |g|= 0.0781  |ddm|= 0.128
    CPU time for cycle= 2      0.06 sec, wall time      0.02 sec
diis-norm(errvec)=0.110459
diis-c [-0.01179334  0.07018656  0.92981344]
alpha HOMO (B3u) = -0.60349591310903  LUMO (Ag) = 0.151531531267286
alpha irrep_nelec = [2, 0, 0, 0, 0, 1, 1, 1]
beta  irrep_nelec = [2, 0, 0, 0, 0, 0, 0, 1]
alpha-Ag nocc = 2  HOMO = -1.40855506181635  LUMO = 0.151531531267286
   mo_energy = [-20.68621386  -1.40855506   0.15153153   0.62092055   0.64386913
   1.07451974   2.04188408   2.10569973   5.10704251   6.83699962
   6.92735526  27.97324092  43.78188028  43.84083463 148.27846114]
alpha-B1g nocc = 0
   mo_energy = [ 0.63812606  2.08912439  6.90391442 43.82601457]
alpha-B2g nocc = 0
   mo_energy = [ 0.63812606  2.08912439  6.90391442 43.82601457]
alpha-B3g nocc = 0
   mo_energy = [ 0.62092055  2.04188408  6.83699962 43.78188028]
alpha-Au nocc = 0
   mo_energy = [2.01696849 6.38415485]
alpha-B1u nocc = 1  HOMO = -0.695015403662645  LUMO = 0.153585899609641
   mo_energy = [ -0.6950154    0.1535859    0.86900115   1.99427769   2.0307803
   3.93820056   6.33747469   6.41253827  25.89477253 138.13687571]
alpha-B2u nocc = 1  HOMO = -0.695015403662646  LUMO = 0.15358589960964
   mo_energy = [ -0.6950154    0.1535859    0.86900115   1.99427769   2.0307803
   3.93820056   6.33747469   6.41253827  25.89477253 138.13687571]
alpha-B3u nocc = 1  HOMO = -0.60349591310903  LUMO = 0.162449488381771
   mo_energy = [ -0.60349591   0.16244949   0.91025822   2.01696849   2.03542505
   4.01305432   6.38415485   6.42206991  25.95291267 138.1640494 ]
beta-Ag nocc = 2  HOMO = -1.08515873885777  LUMO = 0.16519754499539
   mo_energy = [-20.61515092  -1.08515874   0.16519754   0.6580657    0.65863945
   1.13462641   2.16694336   2.19134137   5.19556289   7.00574212
   7.01791801  28.02198595  43.85562719  43.87430316 148.29071973]
beta-B1g nocc = 0
   mo_energy = [ 0.65783887  2.1720351   7.00842886 43.86961597]
beta-B2g nocc = 0
   mo_energy = [ 0.65783887  2.1720351   7.00842886 43.86961597]
beta-B3g nocc = 0
   mo_energy = [ 0.65863945  2.19134137  7.01791801 43.85562719]
beta-Au nocc = 0
   mo_energy = [2.04415515 6.45769442]
beta-B1u nocc = 0
   mo_energy = [6.61902550e-02 2.27032029e-01 1.01647302e+00 2.03426903e+00
 2.05011642e+00 4.10297309e+00 6.44227766e+00 6.46696560e+00
 2.59722661e+01 1.38153725e+02]
beta-B2u nocc = 0
   mo_energy = [6.61902550e-02 2.27032029e-01 1.01647302e+00 2.03426903e+00
 2.05011642e+00 4.10297309e+00 6.44227766e+00 6.46696560e+00
 2.59722661e+01 1.38153725e+02]
beta-B3u nocc = 1  HOMO = -0.526823030780653  LUMO = 0.165874193060133
   mo_energy = [ -0.52682303   0.16587419   0.93358743   2.04415515   2.05210043
   4.05220933   6.45769442   6.47005851  25.97542634 138.16992203]
multiplicity <S^2> = 2.0051429  2S+1 = 3.0034266
E1 = -103.19402922285082  Ecoul = 28.38152327016214
cycle= 3 E= -74.8125059526887  delta_E= -0.00235  |g|= 0.0241  |ddm|= 0.0604
    CPU time for cycle= 3      0.06 sec, wall time      0.02 sec
diis-norm(errvec)=0.0340464
diis-c [-6.34603824e-04 -8.61837395e-02 -2.73148988e-02  1.11349864e+00]
alpha HOMO (B3u) = -0.60800531105551  LUMO (Ag) = 0.152509525241681
alpha irrep_nelec = [2, 0, 0, 0, 0, 1, 1, 1]
beta  irrep_nelec = [2, 0, 0, 0, 0, 0, 0, 1]
alpha-Ag nocc = 2  HOMO = -1.41573580110722  LUMO = 0.152509525241681
   mo_energy = [-20.70814378  -1.4157358    0.15250953   0.62254805   0.64583405
   1.07412296   2.03910429   2.10479599   5.10045081   6.82810959
   6.91870457  27.9568193   43.76415413  43.82121397 148.25403118]
alpha-B1g nocc = 0
   mo_energy = [ 0.63994309  2.08760061  6.89514545 43.80686199]
alpha-B2g nocc = 0
   mo_energy = [ 0.63994309  2.08760061  6.89514545 43.80686199]
alpha-B3g nocc = 0
   mo_energy = [ 0.62254805  2.03910429  6.82810959 43.76415413]
alpha-Au nocc = 0
   mo_energy = [2.01840759 6.38059604]
alpha-B1u nocc = 1  HOMO = -0.707189159645071  LUMO = 0.153395688190768
   mo_energy = [ -0.70718916   0.15339569   0.86644751   1.99532448   2.03252213
   3.92936537   6.33384716   6.40909626  25.87708653 138.11322267]
alpha-B2u nocc = 1  HOMO = -0.707189159645074  LUMO = 0.153395688190766
   mo_energy = [ -0.70718916   0.15339569   0.86644751   1.99532448   2.03252213
   3.92936537   6.33384716   6.40909626  25.87708653 138.11322267]
alpha-B3u nocc = 1  HOMO = -0.60800531105551  LUMO = 0.162680944471228
   mo_energy = [ -0.60800531   0.16268094   0.90953537   2.01840759   2.03728136
   4.00545822   6.38059604   6.41868142  25.93413515 138.13929565]
beta-Ag nocc = 2  HOMO = -1.08058527550701  LUMO = 0.165669077073304
   mo_energy = [-20.63410465  -1.08058528   0.16566908   0.65722781   0.65834898
   1.13656684   2.16542709   2.19175313   5.19377562   7.00125591
   7.0149646   28.00829865  43.83943403  43.85652793 148.26736204]
beta-B1g nocc = 0
   mo_energy = [ 0.65711923  2.17107814  7.00439884 43.85223653]
beta-B2g nocc = 0
   mo_energy = [ 0.65711923  2.17107814  7.00439884 43.85223653]
beta-B3g nocc = 0
   mo_energy = [ 0.65834898  2.19175313  7.0149646  43.83943403]
beta-Au nocc = 0
   mo_energy = [2.04411788 6.45625284]
beta-B1u nocc = 0
   mo_energy = [6.54183341e-02 2.26922815e-01 1.01610713e+00 2.03449785e+00
 2.04987155e+00 4.09759691e+00 6.44203794e+00 6.46473270e+00
 2.59568987e+01 1.38130969e+02]
beta-B2u nocc = 0
   mo_energy = [6.54183341e-02 2.26922815e-01 1.01610713e+00 2.03449785e+00
 2.04987155e+00 4.09759691e+00 6.44203794e+00 6.46473270e+00
 2.59568987e+01 1.38130969e+02]
beta-B3u nocc = 1  HOMO = -0.527584591956976  LUMO = 0.166326285839545
   mo_energy = [ -0.52758459   0.16632629   0.93458608   2.04411788   2.0517776
   4.04764929   6.45625284   6.46755048  25.95899409 138.14610781]
multiplicity <S^2> = 2.0073548  2S+1 = 3.0048992
E1 = -103.22962247447742  Ecoul = 28.41661500604335
cycle= 4 E= -74.8130074684341  delta_E= -0.000502  |g|= 0.0083  |ddm|= 0.0284
    CPU time for cycle= 4      0.06 sec, wall time      0.02 sec
diis-norm(errvec)=0.0117316
diis-c [-5.59736198e-05  3.31652002e-02 -1.07833679e-03 -5.90203574e-01
  1.55811671e+00]
alpha HOMO (B3u) = -0.61030371906998  LUMO (Ag) = 0.152502569415936
alpha irrep_nelec = [2, 0, 0, 0, 0, 1, 1, 1]
beta  irrep_nelec = [2, 0, 0, 0, 0, 0, 0, 1]
alpha-Ag nocc = 2  HOMO = -1.41873422995803  LUMO = 0.152502569415936
   mo_energy = [-20.71024702  -1.41873423   0.15250257   0.62273969   0.64634856
   1.07338506   2.03816879   2.10413192   5.09837188   6.82573097
   6.91584348  27.95512737  43.76339526  43.81943324 148.25320731]
alpha-B1g nocc = 0
   mo_energy = [ 0.64035055  2.08683433  6.892391   43.80533277]
alpha-B2g nocc = 0
   mo_energy = [ 0.64035055  2.08683433  6.892391   43.80533277]
alpha-B3g nocc = 0
   mo_energy = [ 0.62273969  2.03816879  6.82573097 43.76339526]
alpha-Au nocc = 0
   mo_energy = [2.01837614 6.37909729]
alpha-B1u nocc = 1  HOMO = -0.710547471878793  LUMO = 0.153079900303283
   mo_energy = [ -0.71054747   0.1530799    0.86501336   1.99501913   2.03269832
   3.92712747   6.33248336   6.40756015  25.87590076 138.11272488]
alpha-B2u nocc = 1  HOMO = -0.710547471878789  LUMO = 0.153079900303281
   mo_energy = [ -0.71054747   0.1530799    0.86501336   1.99501913   2.03269832
   3.92712747   6.33248336   6.40756015  25.87590076 138.11272488]
alpha-B3u nocc = 1  HOMO = -0.61030371906998  LUMO = 0.162672982388921
   mo_energy = [ -0.61030372   0.16267298   0.90881479   2.01837614   2.0375349
   4.00334769   6.37909729   6.41714112  25.93215713 138.13825092]
beta-Ag nocc = 2  HOMO = -1.0780000150177  LUMO = 0.165586844018659
   mo_energy = [-20.63281154  -1.07800002   0.16558684   0.65626245   0.65763557
   1.13687906   2.16471192   2.19092762   5.1944225    7.00183821
   7.01506495  28.00876651  43.83979499  43.85641743 148.26774639]
beta-B1g nocc = 0
   mo_energy = [ 0.65627188  2.17053489  7.00492955 43.85224276]
beta-B2g nocc = 0
   mo_energy = [ 0.65627188  2.17053489  7.00492955 43.85224276]
beta-B3g nocc = 0
   mo_energy = [ 0.65763557  2.19092762  7.01506495 43.83979499]
beta-Au nocc = 0
   mo_energy = [2.04322879 6.45560559]
beta-B1u nocc = 0
   mo_energy = [6.48856997e-02 2.26922420e-01 1.01617685e+00 2.03349110e+00
 2.04901145e+00 4.09746179e+00 6.44134615e+00 6.46406714e+00
 2.59572655e+01 1.38131410e+02]
beta-B2u nocc = 0
   mo_energy = [6.48856997e-02 2.26922420e-01 1.01617685e+00 2.03349110e+00
 2.04901145e+00 4.09746179e+00 6.44134615e+00 6.46406714e+00
 2.59572655e+01 1.38131410e+02]
beta-B3u nocc = 1  HOMO = -0.524219135739725  LUMO = 0.166726202128086
   mo_energy = [ -0.52421914   0.1667262    0.93606999   2.04322879   2.05092127
   4.04889165   6.45560559   6.46687128  25.95929808 138.14615924]
multiplicity <S^2> = 2.0086718  2S+1 = 3.0057757
E1 = -103.23295694836949  Ecoul = 28.419868621363307
cycle= 5 E= -74.8130883270062  delta_E= -8.09e-05  |g|= 0.00227  |ddm|= 0.0134
    CPU time for cycle= 5      0.07 sec, wall time      0.08 sec
diis-norm(errvec)=0.00321335
diis-c [-2.04725052e-06 -3.37815920e-03  4.79873781e-04  1.36674741e-01
 -6.29690371e-01  1.49591392e+00]
alpha HOMO (B3u) = -0.611377852276375  LUMO (Ag) = 0.152529418753628
alpha irrep_nelec = [2, 0, 0, 0, 0, 1, 1, 1]
beta  irrep_nelec = [2, 0, 0, 0, 0, 0, 0, 1]
alpha-Ag nocc = 2  HOMO = -1.41946006838747  LUMO = 0.152529418753628
   mo_energy = [-20.71014111  -1.41946007   0.15252942   0.62283255   0.64655236
   1.07328859   2.03824195   2.10402353   5.09815571   6.8257236
   6.91534173  27.95527415  43.76387182  43.81951206 148.25347801]
alpha-B1g nocc = 0
   mo_energy = [ 0.64053103  2.08678018  6.8920294  43.80551397]
alpha-B2g nocc = 0
   mo_energy = [ 0.64053103  2.08678018  6.8920294  43.80551397]
alpha-B3g nocc = 0
   mo_energy = [ 0.62283255  2.03824195  6.8257236  43.76387182]
alpha-Au nocc = 0
   mo_energy = [2.01846713 6.37906075]
alpha-B1u nocc = 1  HOMO = -0.711014823582943  LUMO = 0.15306811087261
   mo_energy = [ -0.71101482   0.15306811   0.86489818   1.99505923   2.03281707
   3.92706591   6.33260209   6.4074185   25.87620939 138.11310374]
alpha-B2u nocc = 1  HOMO = -0.711014823582953  LUMO = 0.153068110872611
   mo_energy = [ -0.71101482   0.15306811   0.86489818   1.99505923   2.03281707
   3.92706591   6.33260209   6.4074185   25.87620939 138.11310374]
alpha-B3u nocc = 1  HOMO = -0.611377852276375  LUMO = 0.162670095173732
   mo_energy = [ -0.61137785   0.1626701    0.90855527   2.01846713   2.0376624
   4.0029041    6.37906075   6.41696219  25.932092   138.13844323]
beta-Ag nocc = 2  HOMO = -1.07721300790764  LUMO = 0.165516001288501
   mo_energy = [-20.6319523   -1.07721301   0.165516     0.65598253   0.65748982
   1.13699848   2.16491865   2.19091438   5.19496864   7.002715
   7.01559877  28.00945224  43.84052217  43.85709379 148.2682529 ]
beta-B1g nocc = 0
   mo_energy = [ 0.65601561  2.17065633  7.00570642 43.85293233]
beta-B2g nocc = 0
   mo_energy = [ 0.65601561  2.17065633  7.00570642 43.85293233]
beta-B3g nocc = 0
   mo_energy = [ 0.65748982  2.19091438  7.01559877 43.84052217]
beta-Au nocc = 0
   mo_energy = [2.04305441 6.45583259]
beta-B1u nocc = 0
   mo_energy = [6.48692089e-02 2.27028354e-01 1.01636081e+00 2.03332637e+00
 2.04883533e+00 4.09786837e+00 6.44154218e+00 6.46432522e+00
 2.59579081e+01 1.38131956e+02]
beta-B2u nocc = 0
   mo_energy = [6.48692089e-02 2.27028354e-01 1.01636081e+00 2.03332637e+00
 2.04883533e+00 4.09786837e+00 6.44154218e+00 6.46432522e+00
 2.59579081e+01 1.38131956e+02]
beta-B3u nocc = 1  HOMO = -0.522181625355132  LUMO = 0.166884263826483
   mo_energy = [ -0.52218163   0.16688426   0.93680213   2.04305441   2.05074499
   4.04992893   6.45583259   6.46714175  25.96004884 138.14661273]
multiplicity <S^2> = 2.0091485  2S+1 = 3.0060928
E1 = -103.2314574809316  Ecoul = 28.41836214241603
cycle= 6 E= -74.8130953385156  delta_E= -7.01e-06  |g|= 0.000432  |ddm|= 0.00521
    CPU time for cycle= 6      0.07 sec, wall time      0.16 sec
diis-norm(errvec)=0.000611635
diis-c [-1.11775166e-07  5.32358943e-04  9.28236558e-04 -3.44217367e-02
  1.77939622e-01 -5.89030983e-01  1.44405250e+00]
alpha HOMO (B3u) = -0.61177275868032  LUMO (Ag) = 0.152534312104826
alpha irrep_nelec = [2, 0, 0, 0, 0, 1, 1, 1]
beta  irrep_nelec = [2, 0, 0, 0, 0, 0, 0, 1]
alpha-Ag nocc = 2  HOMO = -1.41960348774201  LUMO = 0.152534312104826
   mo_energy = [-20.71025693  -1.41960349   0.15253431   0.62282583   0.64658548
   1.07326206   2.03821085   2.1039397    5.09806225   6.82566141
   6.91514699  27.95516347  43.76376402  43.81934942 148.25341487]
alpha-B1g nocc = 0
   mo_energy = [ 0.640558    2.08671647  6.89187299 43.80536559]
alpha-B2g nocc = 0
   mo_energy = [ 0.640558    2.08671647  6.89187299 43.80536559]
alpha-B3g nocc = 0
   mo_energy = [ 0.62282583  2.03821085  6.82566141 43.76376402]
alpha-Au nocc = 0
   mo_energy = [2.01846318 6.37898962]
alpha-B1u nocc = 1  HOMO = -0.711054945367881  LUMO = 0.153065472024461
   mo_energy = [ -0.71105495   0.15306547   0.86488421   1.99504572   2.03281528
   3.9270093    6.33256002   6.40732577  25.87610951 138.11303049]
alpha-B2u nocc = 1  HOMO = -0.71105494536788  LUMO = 0.153065472024459
   mo_energy = [ -0.71105495   0.15306547   0.86488421   1.99504572   2.03281528
   3.9270093    6.33256002   6.40732577  25.87610951 138.11303049]
alpha-B3u nocc = 1  HOMO = -0.61177275868032  LUMO = 0.162649821500236
   mo_energy = [ -0.61177276   0.16264982   0.9084225    2.01846318   2.03766064
   4.0026805    6.37898962   6.41686144  25.93191561 138.13835653]
beta-Ag nocc = 2  HOMO = -1.07720055107528  LUMO = 0.16548912565943
   mo_energy = [-20.63203665  -1.07720055   0.16548913   0.6559174    0.6574743
   1.1369688    2.16492602   2.1908837    5.19493671   7.00276035
   7.01553995  28.00937035  43.84041877  43.85704446 148.26817675]
beta-B1g nocc = 0
   mo_energy = [ 0.65595704  2.17064474  7.00572499 43.85286961]
beta-B2g nocc = 0
   mo_energy = [ 0.65595704  2.17064474  7.00572499 43.85286961]
beta-B3g nocc = 0
   mo_energy = [ 0.6574743   2.1908837   7.01553995 43.84041877]
beta-Au nocc = 0
   mo_energy = [2.04301427 6.45580656]
beta-B1u nocc = 0
   mo_energy = [6.48433111e-02 2.27008933e-01 1.01633119e+00 2.03330662e+00
 2.04878645e+00 4.09781691e+00 6.44150239e+00 6.46431034e+00
 2.59578199e+01 1.38131870e+02]
beta-B2u nocc = 0
   mo_energy = [6.48433111e-02 2.27008933e-01 1.01633119e+00 2.03330662e+00
 2.04878645e+00 4.09781691e+00 6.44150239e+00 6.46431034e+00
 2.59578199e+01 1.38131870e+02]
beta-B3u nocc = 1  HOMO = -0.521878573315488  LUMO = 0.166900603076295
   mo_energy = [ -0.52187857   0.1669006    0.93688636   2.04301427   2.05069379
   4.05001679   6.45580656   6.46713113  25.9600293  138.14654305]
multiplicity <S^2> = 2.0092529  2S+1 = 3.0061623
E1 = -103.23145011468193  Ecoul = 28.418354502370377
cycle= 7 E= -74.8130956123116  delta_E= -2.74e-07  |g|= 8.54e-05  |ddm|= 0.000853
    CPU time for cycle= 7      0.07 sec, wall time      0.10 sec
diis-norm(errvec)=0.000120825
diis-c [-2.23533594e-09  1.72417499e-05 -5.75747089e-04  5.81676899e-03
 -3.35974952e-02  1.39862610e-01 -5.29568854e-01  1.41804548e+00]
alpha HOMO (B3u) = -0.611830560436875  LUMO (Ag) = 0.152539508304614
alpha irrep_nelec = [2, 0, 0, 0, 0, 1, 1, 1]
beta  irrep_nelec = [2, 0, 0, 0, 0, 0, 0, 1]
alpha-Ag nocc = 2  HOMO = -1.41959571871687  LUMO = 0.152539508304614
   mo_energy = [-20.71024275  -1.41959572   0.15253951   0.6228266    0.64659746
   1.07327046   2.03821517   2.10394358   5.09807405   6.82567728
   6.91514581  27.95518022  43.76378065  43.81936589 148.25342695]
alpha-B1g nocc = 0
   mo_energy = [ 0.64056735  2.08672017  6.89187588 43.80538203]
alpha-B2g nocc = 0
   mo_energy = [ 0.64056735  2.08672017  6.89187588 43.80538203]
alpha-B3g nocc = 0
   mo_energy = [ 0.6228266   2.03821517  6.82567728 43.76378065]
alpha-Au nocc = 0
   mo_energy = [2.01846917 6.37899696]
alpha-B1u nocc = 1  HOMO = -0.711034024083248  LUMO = 0.153068004662418
   mo_energy = [ -0.71103402   0.153068     0.8648952    1.99504878   2.03282339
   3.92702577   6.33256724   6.4073339   25.87612704 138.113043  ]
alpha-B2u nocc = 1  HOMO = -0.711034024083246  LUMO = 0.153068004662418
   mo_energy = [ -0.71103402   0.153068     0.8648952    1.99504878   2.03282339
   3.92702577   6.33256724   6.4073339   25.87612704 138.113043  ]
alpha-B3u nocc = 1  HOMO = -0.611830560436875  LUMO = 0.162645985673057
   mo_energy = [ -0.61183056   0.16264599   0.90840369   2.01846917   2.03766953
   4.00266272   6.37899696   6.41686998  25.93192474 138.13837269]
beta-Ag nocc = 2  HOMO = -1.07717853918611  LUMO = 0.165489408290013
   mo_energy = [-20.6320142   -1.07717854   0.16548941   0.65591213   0.65747871
   1.13697604   2.16493471   2.19089294   5.19495275   7.0027908
   7.0155476   28.00939083  43.84043082  43.85707878 148.26818921]
beta-B1g nocc = 0
   mo_energy = [ 0.65595478  2.17065555  7.00575038 43.85289835]
beta-B2g nocc = 0
   mo_energy = [ 0.65595478  2.17065555  7.00575038 43.85289835]
beta-B3g nocc = 0
   mo_energy = [ 0.65747871  2.19089294  7.0155476  43.84043082]
beta-Au nocc = 0
   mo_energy = [2.04301779 6.45581973]
beta-B1u nocc = 0
   mo_energy = [6.48493545e-02 2.27015209e-01 1.01633862e+00 2.03331453e+00
 2.04878687e+00 4.09782826e+00 6.44150993e+00 6.46432649e+00
 2.59578339e+01 1.38131881e+02]
beta-B2u nocc = 0
   mo_energy = [6.48493545e-02 2.27015209e-01 1.01633862e+00 2.03331453e+00
 2.04878687e+00 4.09782826e+00 6.44150993e+00 6.46432649e+00
 2.59578339e+01 1.38131881e+02]
beta-B3u nocc = 1  HOMO = -0.521843795586655  LUMO = 0.166902284871347
   mo_energy = [ -0.5218438    0.16690228   0.93690064   2.04301779   2.0506931
   4.05004817   6.45581973   6.46714819  25.96006519 138.14656446]
multiplicity <S^2> = 2.009271  2S+1 = 3.0061743
E1 = -103.23141741773202  Ecoul = 28.41832179746503
cycle= 8 E= -74.813095620267  delta_E= -7.96e-09  |g|= 8.98e-06  |ddm|= 0.000194
    CPU time for cycle= 8      0.07 sec, wall time      0.10 sec
diis-norm(errvec)=1.26958e-05
diis-c [-3.30791264e-11 -1.38695716e-05  1.27666775e-04 -7.04781714e-04
  4.70091827e-03 -2.18515815e-02  1.03494314e-01 -3.50051624e-01
  1.26429896e+00]
alpha HOMO (B3u) = -0.61183225669593  LUMO (Ag) = 0.152539461681439
alpha irrep_nelec = [2, 0, 0, 0, 0, 1, 1, 1]
beta  irrep_nelec = [2, 0, 0, 0, 0, 0, 0, 1]
alpha-Ag nocc = 2  HOMO = -1.4195947923818  LUMO = 0.152539461681439
   mo_energy = [-20.71024316  -1.41959479   0.15253946   0.62282624   0.64659762
   1.07327058   2.03821574   2.10394454   5.09807421   6.82567805
   6.91514623  27.95517985  43.76378024  43.81936651 148.25342628]
alpha-B1g nocc = 0
   mo_energy = [ 0.64056728  2.08672084  6.89187635 43.80538239]
alpha-B2g nocc = 0
   mo_energy = [ 0.64056728  2.08672084  6.89187635 43.80538239]
alpha-B3g nocc = 0
   mo_energy = [ 0.62282624  2.03821574  6.82567805 43.76378024]
alpha-Au nocc = 0
   mo_energy = [2.01846932 6.37899746]
alpha-B1u nocc = 1  HOMO = -0.711031057067844  LUMO = 0.153068394779128
   mo_energy = [ -0.71103106   0.15306839   0.86489656   1.99504896   2.03282367
   3.9270271    6.33256747   6.40733466  25.87612705 138.11304229]
alpha-B2u nocc = 1  HOMO = -0.711031057067847  LUMO = 0.153068394779126
   mo_energy = [ -0.71103106   0.15306839   0.86489656   1.99504896   2.03282367
   3.9270271    6.33256747   6.40733466  25.87612705 138.11304229]
alpha-B3u nocc = 1  HOMO = -0.61183225669593  LUMO = 0.16264568656687
   mo_energy = [ -0.61183226   0.16264569   0.90840276   2.01846932   2.03766988
   4.00266204   6.37899746   6.41687085  25.93192513 138.13837277]
beta-Ag nocc = 2  HOMO = -1.07717781771493  LUMO = 0.165490082563866
   mo_energy = [-20.63201417  -1.07717782   0.16549008   0.65591259   0.65747943
   1.13697675   2.16493393   2.19089313   5.19495304   7.00279055
   7.01554659  28.00939086  43.84042935  43.85707897 148.2681894 ]
beta-B1g nocc = 0
   mo_energy = [ 0.65595561  2.17065527  7.00574982 43.85289812]
beta-B2g nocc = 0
   mo_energy = [ 0.65595561  2.17065527  7.00574982 43.85289812]
beta-B3g nocc = 0
   mo_energy = [ 0.65747943  2.19089313  7.01554659 43.84042935]
beta-Au nocc = 0
   mo_energy = [2.04301846 6.45581951]
beta-B1u nocc = 0
   mo_energy = [6.48494570e-02 2.27015228e-01 1.01633879e+00 2.03331543e+00
 2.04878721e+00 4.09782769e+00 6.44150948e+00 6.46432640e+00
 2.59578330e+01 1.38131881e+02]
beta-B2u nocc = 0
   mo_energy = [6.48494570e-02 2.27015228e-01 1.01633879e+00 2.03331543e+00
 2.04878721e+00 4.09782769e+00 6.44150948e+00 6.46432640e+00
 2.59578330e+01 1.38131881e+02]
beta-B3u nocc = 1  HOMO = -0.521847960656184  LUMO = 0.166901737790422
   mo_energy = [ -0.52184796   0.16690174   0.93689901   2.04301846   2.0506933
   4.05004707   6.45581951   6.46714814  25.9600655  138.14656509]
multiplicity <S^2> = 2.0092707  2S+1 = 3.0061741
E1 = -103.23142110236233  Ecoul = 28.418325482002544
cycle= 9 E= -74.8130956203598  delta_E= -9.28e-11  |g|= 1.1e-06  |ddm|= 9.54e-06
    CPU time for cycle= 9      0.07 sec, wall time      0.09 sec
diis-norm(errvec)=1.55383e-06
diis-c [-3.77989050e-13  1.24078317e+00 -1.92939469e-05  1.14427898e-04
 -6.09906136e-04  2.69060326e-03 -1.31642057e-02  4.96396826e-02
 -2.79434477e-01]
alpha HOMO (B3u) = -0.611831986528677  LUMO (Ag) = 0.152539412060416
alpha irrep_nelec = [2, 0, 0, 0, 0, 1, 1, 1]
beta  irrep_nelec = [2, 0, 0, 0, 0, 0, 0, 1]
alpha-Ag nocc = 2  HOMO = -1.41959448636161  LUMO = 0.152539412060416
   mo_energy = [-20.71024271  -1.41959449   0.15253941   0.62282626   0.64659761
   1.07327067   2.03821602   2.10394482   5.09807449   6.82567843
   6.9151467   27.95518028  43.76378068  43.81936715 148.25342671]
alpha-B1g nocc = 0
   mo_energy = [ 0.64056728  2.08672112  6.8918768  43.80538298]
alpha-B2g nocc = 0
   mo_energy = [ 0.64056728  2.08672112  6.8918768  43.80538298]
alpha-B3g nocc = 0
   mo_energy = [ 0.62282626  2.03821602  6.82567843 43.76378068]
alpha-Au nocc = 0
   mo_energy = [2.01846943 6.37899779]
alpha-B1u nocc = 1  HOMO = -0.711030307344026  LUMO = 0.153068418109091
   mo_energy = [ -0.71103031   0.15306842   0.86489678   1.99504909   2.03282375
   3.92702756   6.33256773   6.40733503  25.87612751 138.1130427 ]
alpha-B2u nocc = 1  HOMO = -0.711030307344025  LUMO = 0.153068418109092
   mo_energy = [ -0.71103031   0.15306842   0.86489678   1.99504909   2.03282375
   3.92702756   6.33256773   6.40733503  25.87612751 138.1130427 ]
alpha-B3u nocc = 1  HOMO = -0.611831986528677  LUMO = 0.162645634611272
   mo_energy = [ -0.61183199   0.16264563   0.90840277   2.01846943   2.03766996
   4.00266241   6.37899779   6.41687122  25.93192571 138.13837331]
beta-Ag nocc = 2  HOMO = -1.07717758737406  LUMO = 0.165490220008898
   mo_energy = [-20.63201366  -1.07717759   0.16549022   0.65591275   0.65747954
   1.136977     2.16493399   2.19089327   5.1949534    7.00279082
   7.01554684  28.00939135  43.84042967  43.85707948 148.26818992]
beta-B1g nocc = 0
   mo_energy = [ 0.65595575  2.17065533  7.00575009 43.85289859]
beta-B2g nocc = 0
   mo_energy = [ 0.65595575  2.17065533  7.00575009 43.85289859]
beta-B3g nocc = 0
   mo_energy = [ 0.65747954  2.19089327  7.01554684 43.84042967]
beta-Au nocc = 0
   mo_energy = [2.04301858 6.45581973]
beta-B1u nocc = 0
   mo_energy = [6.48495608e-02 2.27015315e-01 1.01633898e+00 2.03331558e+00
 2.04878732e+00 4.09782792e+00 6.44150966e+00 6.46432664e+00
 2.59578334e+01 1.38131882e+02]
beta-B2u nocc = 0
   mo_energy = [6.48495608e-02 2.27015315e-01 1.01633898e+00 2.03331558e+00
 2.04878732e+00 4.09782792e+00 6.44150966e+00 6.46432664e+00
 2.59578334e+01 1.38131882e+02]
beta-B3u nocc = 1  HOMO = -0.521848618468796  LUMO = 0.166901693377753
   mo_energy = [ -0.52184862   0.16690169   0.93689894   2.04301858   2.05069341
   4.05004719   6.45581973   6.46714839  25.960066   138.14656569]
multiplicity <S^2> = 2.0092706  2S+1 = 3.006174
E1 = -103.23142148908046  Ecoul = 28.418325868719073
cycle= 10 E= -74.8130956203614  delta_E= -1.61e-12  |g|= 7.9e-08  |ddm|= 1.59e-06
    CPU time for cycle= 10      0.07 sec, wall time      0.12 sec
diis-norm(errvec)=1.11749e-07
diis-c [-3.76145825e-15 -1.14067548e-01  1.10519692e+00  3.79188615e-06
 -2.44462459e-05  9.00529453e-05 -3.02987743e-04  4.44806319e-04
  8.65941593e-03]
alpha HOMO (B3u) = -0.611832003905034  LUMO (Ag) = 0.15253940892555
alpha irrep_nelec = [2, 0, 0, 0, 0, 1, 1, 1]
beta  irrep_nelec = [2, 0, 0, 0, 0, 0, 0, 1]
alpha-Ag nocc = 2  HOMO = -1.41959449780045  LUMO = 0.15253940892555
   mo_energy = [-20.71024273  -1.4195945    0.15253941   0.62282626   0.64659761
   1.07327067   2.03821602   2.10394481   5.09807448   6.82567843
   6.9151467   27.95518026  43.76378066  43.81936714 148.25342669]
alpha-B1g nocc = 0
   mo_energy = [ 0.64056728  2.08672112  6.89187679 43.80538297]
alpha-B2g nocc = 0
   mo_energy = [ 0.64056728  2.08672112  6.89187679 43.80538297]
alpha-B3g nocc = 0
   mo_energy = [ 0.62282626  2.03821602  6.82567843 43.76378066]
alpha-Au nocc = 0
   mo_energy = [2.01846943 6.37899779]
alpha-B1u nocc = 1  HOMO = -0.711030298360433  LUMO = 0.153068419445819
   mo_energy = [ -0.7110303    0.15306842   0.86489679   1.99504909   2.03282375
   3.92702756   6.33256773   6.40733503  25.87612749 138.11304268]
alpha-B2u nocc = 1  HOMO = -0.711030298360435  LUMO = 0.153068419445818
   mo_energy = [ -0.7110303    0.15306842   0.86489679   1.99504909   2.03282375
   3.92702756   6.33256773   6.40733503  25.87612749 138.11304268]
alpha-B3u nocc = 1  HOMO = -0.611832003905034  LUMO = 0.162645631873132
   mo_energy = [ -0.611832     0.16264563   0.90840276   2.01846943   2.03766996
   4.0026624    6.37899779   6.41687122  25.9319257  138.13837329]
beta-Ag nocc = 2  HOMO = -1.07717757286559  LUMO = 0.165490221982099
   mo_energy = [-20.63201367  -1.07717757   0.16549022   0.65591276   0.65747954
   1.136977     2.164934     2.19089326   5.1949534    7.00279082
   7.01554683  28.00939134  43.84042965  43.85707947 148.26818992]
beta-B1g nocc = 0
   mo_energy = [ 0.65595575  2.17065532  7.00575008 43.85289857]
beta-B2g nocc = 0
   mo_energy = [ 0.65595575  2.17065532  7.00575008 43.85289857]
beta-B3g nocc = 0
   mo_energy = [ 0.65747954  2.19089326  7.01554683 43.84042965]
beta-Au nocc = 0
   mo_energy = [2.04301858 6.45581972]
beta-B1u nocc = 0
   mo_energy = [6.48495579e-02 2.27015311e-01 1.01633898e+00 2.03331558e+00
 2.04878732e+00 4.09782790e+00 6.44150966e+00 6.46432664e+00
 2.59578334e+01 1.38131882e+02]
beta-B2u nocc = 0
   mo_energy = [6.48495579e-02 2.27015311e-01 1.01633898e+00 2.03331558e+00
 2.04878732e+00 4.09782790e+00 6.44150966e+00 6.46432664e+00
 2.59578334e+01 1.38131882e+02]
beta-B3u nocc = 1  HOMO = -0.521848624296492  LUMO = 0.16690168914817
   mo_energy = [ -0.52184862   0.16690169   0.93689892   2.04301858   2.05069341
   4.05004717   6.45581972   6.46714839  25.96006599 138.14656569]
multiplicity <S^2> = 2.0092706  2S+1 = 3.006174
E1 = -103.23142156452808  Ecoul = 28.418325944166636
cycle= 11 E= -74.8130956203614  delta_E= -4.26e-14  |g|= 7.32e-09  |ddm|= 1.09e-07
    CPU time for cycle= 11      0.07 sec, wall time      0.03 sec
diis-norm(errvec)=1.03501e-08
Linear dependence found in DIIS error vectors.
diis-c [-1.25600140e-15 -5.07147799e-02  4.97148079e-01  5.49659197e-01
 -1.19456797e-06  8.23140346e-06 -5.85596544e-05  7.53586226e-05
  3.88366748e-03]
alpha HOMO (B3u) = -0.61183200463241  LUMO (Ag) = 0.152539409223573
alpha irrep_nelec = [2, 0, 0, 0, 0, 1, 1, 1]
beta  irrep_nelec = [2, 0, 0, 0, 0, 0, 0, 1]
alpha-Ag nocc = 2  HOMO = -1.41959449709741  LUMO = 0.152539409223573
   mo_energy = [-20.71024273  -1.4195945    0.15253941   0.62282626   0.64659761
   1.07327067   2.03821602   2.10394481   5.09807449   6.82567843
   6.9151467   27.95518026  43.76378066  43.81936714 148.25342669]
alpha-B1g nocc = 0
   mo_energy = [ 0.64056728  2.08672112  6.89187679 43.80538298]
alpha-B2g nocc = 0
   mo_energy = [ 0.64056728  2.08672112  6.89187679 43.80538298]
alpha-B3g nocc = 0
   mo_energy = [ 0.62282626  2.03821602  6.82567843 43.76378066]
alpha-Au nocc = 0
   mo_energy = [2.01846943 6.37899779]
alpha-B1u nocc = 1  HOMO = -0.711030298262631  LUMO = 0.153068419554432
   mo_energy = [ -0.7110303    0.15306842   0.86489679   1.99504909   2.03282376
   3.92702756   6.33256773   6.40733503  25.8761275  138.11304269]
alpha-B2u nocc = 1  HOMO = -0.711030298262632  LUMO = 0.15306841955443
   mo_energy = [ -0.7110303    0.15306842   0.86489679   1.99504909   2.03282376
   3.92702756   6.33256773   6.40733503  25.8761275  138.11304269]
alpha-B3u nocc = 1  HOMO = -0.61183200463241  LUMO = 0.162645631873068
   mo_energy = [ -0.611832     0.16264563   0.90840276   2.01846943   2.03766996
   4.0026624    6.37899779   6.41687122  25.9319257  138.1383733 ]
beta-Ag nocc = 2  HOMO = -1.07717757109136  LUMO = 0.165490222101627
   mo_energy = [-20.63201367  -1.07717757   0.16549022   0.65591276   0.65747954
   1.136977     2.164934     2.19089326   5.1949534    7.00279082
   7.01554683  28.00939134  43.84042965  43.85707947 148.26818992]
beta-B1g nocc = 0
   mo_energy = [ 0.65595575  2.17065532  7.00575008 43.85289858]
beta-B2g nocc = 0
   mo_energy = [ 0.65595575  2.17065532  7.00575008 43.85289858]
beta-B3g nocc = 0
   mo_energy = [ 0.65747954  2.19089326  7.01554683 43.84042965]
beta-Au nocc = 0
   mo_energy = [2.04301858 6.45581973]
beta-B1u nocc = 0
   mo_energy = [6.48495582e-02 2.27015311e-01 1.01633898e+00 2.03331558e+00
 2.04878732e+00 4.09782791e+00 6.44150966e+00 6.46432664e+00
 2.59578334e+01 1.38131882e+02]
beta-B2u nocc = 0
   mo_energy = [6.48495582e-02 2.27015311e-01 1.01633898e+00 2.03331558e+00
 2.04878732e+00 4.09782791e+00 6.44150966e+00 6.46432664e+00
 2.59578334e+01 1.38131882e+02]
beta-B3u nocc = 1  HOMO = -0.521848622270118  LUMO = 0.16690168920151
   mo_energy = [ -0.52184862   0.16690169   0.93689893   2.04301858   2.05069341
   4.05004717   6.45581973   6.46714839  25.960066   138.14656569]
multiplicity <S^2> = 2.0092706  2S+1 = 3.006174
E1 = -103.23142156405385  Ecoul = 28.418325943692416
cycle= 12 E= -74.8130956203614  delta_E= 1.42e-14  |g|= 4.42e-09  |ddm|= 5.32e-09
    CPU time for cycle= 12      0.07 sec, wall time      0.12 sec
diis-norm(errvec)=6.25409e-09
Linear dependence found in DIIS error vectors.
diis-c [-5.84109415e-16 -3.33316068e-02  3.21350886e-01  3.54248444e-01
  3.55063674e-01  1.51957748e-06 -2.48990426e-05  1.42594853e-05
  2.67772343e-03]
alpha HOMO (B3u) = -0.611832005203563  LUMO (Ag) = 0.152539409196164
alpha irrep_nelec = [2, 0, 0, 0, 0, 1, 1, 1]
beta  irrep_nelec = [2, 0, 0, 0, 0, 0, 0, 1]
alpha-Ag nocc = 2  HOMO = -1.41959449716705  LUMO = 0.152539409196164
   mo_energy = [-20.71024273  -1.4195945    0.15253941   0.62282626   0.64659761
   1.07327067   2.03821602   2.10394481   5.09807448   6.82567843
   6.9151467   27.95518026  43.76378066  43.81936714 148.25342669]
alpha-B1g nocc = 0
   mo_energy = [ 0.64056728  2.08672112  6.89187679 43.80538297]
alpha-B2g nocc = 0
   mo_energy = [ 0.64056728  2.08672112  6.89187679 43.80538297]
alpha-B3g nocc = 0
   mo_energy = [ 0.62282626  2.03821602  6.82567843 43.76378066]
alpha-Au nocc = 0
   mo_energy = [2.01846943 6.37899779]
alpha-B1u nocc = 1  HOMO = -0.711030298246787  LUMO = 0.153068419560782
   mo_energy = [ -0.7110303    0.15306842   0.86489679   1.99504909   2.03282375
   3.92702756   6.33256773   6.40733503  25.8761275  138.11304268]
alpha-B2u nocc = 1  HOMO = -0.711030298246784  LUMO = 0.153068419560779
   mo_energy = [ -0.7110303    0.15306842   0.86489679   1.99504909   2.03282375
   3.92702756   6.33256773   6.40733503  25.8761275  138.11304268]
alpha-B3u nocc = 1  HOMO = -0.611832005203563  LUMO = 0.162645631842847
   mo_energy = [ -0.61183201   0.16264563   0.90840276   2.01846943   2.03766996
   4.0026624    6.37899779   6.41687122  25.9319257  138.1383733 ]
beta-Ag nocc = 2  HOMO = -1.07717757164699  LUMO = 0.165490222061068
   mo_energy = [-20.63201367  -1.07717757   0.16549022   0.65591276   0.65747954
   1.136977     2.164934     2.19089326   5.1949534    7.00279082
   7.01554683  28.00939134  43.84042965  43.85707947 148.26818992]
beta-B1g nocc = 0
   mo_energy = [ 0.65595575  2.17065532  7.00575008 43.85289858]
beta-B2g nocc = 0
   mo_energy = [ 0.65595575  2.17065532  7.00575008 43.85289858]
beta-B3g nocc = 0
   mo_energy = [ 0.65747954  2.19089326  7.01554683 43.84042965]
beta-Au nocc = 0
   mo_energy = [2.04301858 6.45581973]
beta-B1u nocc = 0
   mo_energy = [6.48495580e-02 2.27015311e-01 1.01633898e+00 2.03331558e+00
 2.04878732e+00 4.09782790e+00 6.44150966e+00 6.46432664e+00
 2.59578334e+01 1.38131882e+02]
beta-B2u nocc = 0
   mo_energy = [6.48495580e-02 2.27015311e-01 1.01633898e+00 2.03331558e+00
 2.04878732e+00 4.09782790e+00 6.44150966e+00 6.46432664e+00
 2.59578334e+01 1.38131882e+02]
beta-B3u nocc = 1  HOMO = -0.521848622453744  LUMO = 0.166901689162893
   mo_energy = [ -0.52184862   0.16690169   0.93689893   2.04301858   2.05069341
   4.05004717   6.45581973   6.46714839  25.960066   138.14656569]
multiplicity <S^2> = 2.0092706  2S+1 = 3.006174
E1 = -103.23142156476146  Ecoul = 28.418325944400074
cycle= 13 E= -74.8130956203614  delta_E= 2.84e-14  |g|= 3.35e-09  |ddm|= 1.27e-09
    CPU time for cycle= 13      0.07 sec, wall time      0.16 sec
diis-norm(errvec)=4.73209e-09
Linear dependence found in DIIS error vectors.
diis-c [-2.44857793e-16 -2.53090163e-02  2.37219719e-01  2.61566304e-01
  2.62184696e-01  2.62247175e-01 -9.94693485e-06 -1.97465491e-05
  2.12081522e-03]
alpha HOMO (B3u) = -0.611832005279082  LUMO (Ag) = 0.152539409246357
alpha irrep_nelec = [2, 0, 0, 0, 0, 1, 1, 1]
beta  irrep_nelec = [2, 0, 0, 0, 0, 0, 0, 1]
alpha-Ag nocc = 2  HOMO = -1.41959449708796  LUMO = 0.152539409246357
   mo_energy = [-20.71024273  -1.4195945    0.15253941   0.62282626   0.64659761
   1.07327067   2.03821602   2.10394481   5.09807449   6.82567843
   6.9151467   27.95518026  43.76378066  43.81936714 148.25342669]
alpha-B1g nocc = 0
   mo_energy = [ 0.64056728  2.08672112  6.89187679 43.80538298]
alpha-B2g nocc = 0
   mo_energy = [ 0.64056728  2.08672112  6.89187679 43.80538298]
alpha-B3g nocc = 0
   mo_energy = [ 0.62282626  2.03821602  6.82567843 43.76378066]
alpha-Au nocc = 0
   mo_energy = [2.01846943 6.37899779]
alpha-B1u nocc = 1  HOMO = -0.711030298310291  LUMO = 0.153068419561307
   mo_energy = [ -0.7110303    0.15306842   0.86489679   1.99504909   2.03282375
   3.92702756   6.33256773   6.40733503  25.8761275  138.11304269]
alpha-B2u nocc = 1  HOMO = -0.711030298310292  LUMO = 0.153068419561306
   mo_energy = [ -0.7110303    0.15306842   0.86489679   1.99504909   2.03282375
   3.92702756   6.33256773   6.40733503  25.8761275  138.11304269]
alpha-B3u nocc = 1  HOMO = -0.611832005279082  LUMO = 0.162645631850882
   mo_energy = [ -0.61183201   0.16264563   0.90840276   2.01846943   2.03766996
   4.0026624    6.37899779   6.41687122  25.9319257  138.1383733 ]
beta-Ag nocc = 2  HOMO = -1.07717757105738  LUMO = 0.165490222100329
   mo_energy = [-20.63201367  -1.07717757   0.16549022   0.65591276   0.65747954
   1.136977     2.164934     2.19089326   5.1949534    7.00279082
   7.01554683  28.00939134  43.84042965  43.85707947 148.26818992]
beta-B1g nocc = 0
   mo_energy = [ 0.65595575  2.17065532  7.00575008 43.85289858]
beta-B2g nocc = 0
   mo_energy = [ 0.65595575  2.17065532  7.00575008 43.85289858]
beta-B3g nocc = 0
   mo_energy = [ 0.65747954  2.19089326  7.01554683 43.84042965]
beta-Au nocc = 0
   mo_energy = [2.04301858 6.45581973]
beta-B1u nocc = 0
   mo_energy = [6.48495580e-02 2.27015311e-01 1.01633898e+00 2.03331558e+00
 2.04878732e+00 4.09782791e+00 6.44150966e+00 6.46432664e+00
 2.59578334e+01 1.38131882e+02]
beta-B2u nocc = 0
   mo_energy = [6.48495580e-02 2.27015311e-01 1.01633898e+00 2.03331558e+00
 2.04878732e+00 4.09782791e+00 6.44150966e+00 6.46432664e+00
 2.59578334e+01 1.38131882e+02]
beta-B3u nocc = 1  HOMO = -0.521848621954648  LUMO = 0.16690168920317
   mo_energy = [ -0.52184862   0.16690169   0.93689893   2.04301858   2.05069341
   4.05004717   6.45581973   6.46714839  25.960066   138.14656569]
multiplicity <S^2> = 2.0092706  2S+1 = 3.006174
E1 = -103.23142156449586  Ecoul = 28.418325944134466
cycle= 14 E= -74.8130956203614  delta_E=    0  |g|= 2.71e-09  |ddm|= 1.84e-09
    CPU time for cycle= 14      0.07 sec, wall time      0.05 sec
diis-norm(errvec)=3.82838e-09
Linear dependence found in DIIS error vectors.
diis-c [-2.02382545e-16 -2.11868861e-02  1.87301606e-01  2.07560534e-01
  2.08047560e-01  2.08119047e-01  2.08213691e-01 -6.25475772e-05
  2.00699663e-03]
alpha HOMO (B3u) = -0.611832004922234  LUMO (Ag) = 0.152539409292408
alpha irrep_nelec = [2, 0, 0, 0, 0, 1, 1, 1]
beta  irrep_nelec = [2, 0, 0, 0, 0, 0, 0, 1]
alpha-Ag nocc = 2  HOMO = -1.41959449669628  LUMO = 0.152539409292408
   mo_energy = [-20.71024273  -1.4195945    0.15253941   0.62282626   0.64659761
   1.07327067   2.03821602   2.10394481   5.09807449   6.82567843
   6.9151467   27.95518026  43.76378066  43.81936714 148.25342669]
alpha-B1g nocc = 0
   mo_energy = [ 0.64056728  2.08672112  6.89187679 43.80538298]
alpha-B2g nocc = 0
   mo_energy = [ 0.64056728  2.08672112  6.89187679 43.80538298]
alpha-B3g nocc = 0
   mo_energy = [ 0.62282626  2.03821602  6.82567843 43.76378066]
alpha-Au nocc = 0
   mo_energy = [2.01846943 6.37899779]
alpha-B1u nocc = 1  HOMO = -0.711030298157142  LUMO = 0.153068419579387
   mo_energy = [ -0.7110303    0.15306842   0.86489679   1.99504909   2.03282376
   3.92702756   6.33256773   6.40733503  25.8761275  138.11304269]
alpha-B2u nocc = 1  HOMO = -0.711030298157146  LUMO = 0.153068419579386
   mo_energy = [ -0.7110303    0.15306842   0.86489679   1.99504909   2.03282376
   3.92702756   6.33256773   6.40733503  25.8761275  138.11304269]
alpha-B3u nocc = 1  HOMO = -0.611832004922234  LUMO = 0.162645631865389
   mo_energy = [ -0.611832     0.16264563   0.90840276   2.01846943   2.03766996
   4.0026624    6.37899779   6.41687122  25.9319257  138.1383733 ]
beta-Ag nocc = 2  HOMO = -1.07717757093244  LUMO = 0.165490222143628
   mo_energy = [-20.63201367  -1.07717757   0.16549022   0.65591276   0.65747954
   1.136977     2.164934     2.19089326   5.1949534    7.00279082
   7.01554683  28.00939134  43.84042965  43.85707947 148.26818992]
beta-B1g nocc = 0
   mo_energy = [ 0.65595575  2.17065532  7.00575008 43.85289858]
beta-B2g nocc = 0
   mo_energy = [ 0.65595575  2.17065532  7.00575008 43.85289858]
beta-B3g nocc = 0
   mo_energy = [ 0.65747954  2.19089326  7.01554683 43.84042965]
beta-Au nocc = 0
   mo_energy = [2.04301858 6.45581973]
beta-B1u nocc = 0
   mo_energy = [6.48495581e-02 2.27015311e-01 1.01633898e+00 2.03331558e+00
 2.04878732e+00 4.09782791e+00 6.44150966e+00 6.46432664e+00
 2.59578334e+01 1.38131882e+02]
beta-B2u nocc = 0
   mo_energy = [6.48495581e-02 2.27015311e-01 1.01633898e+00 2.03331558e+00
 2.04878732e+00 4.09782791e+00 6.44150966e+00 6.46432664e+00
 2.59578334e+01 1.38131882e+02]
beta-B3u nocc = 1  HOMO = -0.521848622231798  LUMO = 0.166901689176624
   mo_energy = [ -0.52184862   0.16690169   0.93689893   2.04301858   2.05069341
   4.05004717   6.45581973   6.46714839  25.960066   138.14656569]
multiplicity <S^2> = 2.0092706  2S+1 = 3.006174
E1 = -103.23142156462289  Ecoul = 28.41832594426151
cycle= 15 E= -74.8130956203614  delta_E= 1.42e-14  |g|= 2.35e-09  |ddm|= 1.25e-09
    CPU time for cycle= 15      0.06 sec, wall time      0.02 sec
diis-norm(errvec)=3.32246e-09
Linear dependence found in DIIS error vectors.
diis-c [-1.07928287e-15 -1.53809332e-02  1.56565992e-01  1.71273932e-01
  1.71508307e-01  1.71570593e-01  1.71623037e-01  1.71658700e-01
  1.18037189e-03]
alpha HOMO (B3u) = -0.611832003182663  LUMO (Ag) = 0.152539409270508
alpha irrep_nelec = [2, 0, 0, 0, 0, 1, 1, 1]
beta  irrep_nelec = [2, 0, 0, 0, 0, 0, 0, 1]
alpha-Ag nocc = 2  HOMO = -1.41959449589773  LUMO = 0.152539409270508
   mo_energy = [-20.71024273  -1.4195945    0.15253941   0.62282626   0.64659761
   1.07327067   2.03821602   2.10394481   5.09807449   6.82567843
   6.9151467   27.95518026  43.76378066  43.81936714 148.25342669]
alpha-B1g nocc = 0
   mo_energy = [ 0.64056728  2.08672112  6.89187679 43.80538298]
alpha-B2g nocc = 0
   mo_energy = [ 0.64056728  2.08672112  6.89187679 43.80538298]
alpha-B3g nocc = 0
   mo_energy = [ 0.62282626  2.03821602  6.82567843 43.76378066]
alpha-Au nocc = 0
   mo_energy = [2.01846943 6.37899779]
alpha-B1u nocc = 1  HOMO = -0.711030297736966  LUMO = 0.153068419586766
   mo_energy = [ -0.7110303    0.15306842   0.86489679   1.99504909   2.03282376
   3.92702756   6.33256773   6.40733503  25.8761275  138.11304269]
alpha-B2u nocc = 1  HOMO = -0.711030297736963  LUMO = 0.153068419586764
   mo_energy = [ -0.7110303    0.15306842   0.86489679   1.99504909   2.03282376
   3.92702756   6.33256773   6.40733503  25.8761275  138.11304269]
alpha-B3u nocc = 1  HOMO = -0.611832003182663  LUMO = 0.162645631947882
   mo_energy = [ -0.611832     0.16264563   0.90840276   2.01846943   2.03766996
   4.00266241   6.37899779   6.41687122  25.9319257  138.1383733 ]
beta-Ag nocc = 2  HOMO = -1.07717757094102  LUMO = 0.165490222233869
   mo_energy = [-20.63201367  -1.07717757   0.16549022   0.65591276   0.65747954
   1.136977     2.164934     2.19089326   5.1949534    7.00279082
   7.01554683  28.00939134  43.84042965  43.85707947 148.26818992]
beta-B1g nocc = 0
   mo_energy = [ 0.65595575  2.17065532  7.00575008 43.85289858]
beta-B2g nocc = 0
   mo_energy = [ 0.65595575  2.17065532  7.00575008 43.85289858]
beta-B3g nocc = 0
   mo_energy = [ 0.65747954  2.19089326  7.01554683 43.84042965]
beta-Au nocc = 0
   mo_energy = [2.04301858 6.45581973]
beta-B1u nocc = 0
   mo_energy = [6.48495582e-02 2.27015311e-01 1.01633898e+00 2.03331558e+00
 2.04878732e+00 4.09782791e+00 6.44150966e+00 6.46432664e+00
 2.59578334e+01 1.38131882e+02]
beta-B2u nocc = 0
   mo_energy = [6.48495582e-02 2.27015311e-01 1.01633898e+00 2.03331558e+00
 2.04878732e+00 4.09782791e+00 6.44150966e+00 6.46432664e+00
 2.59578334e+01 1.38131882e+02]
beta-B3u nocc = 1  HOMO = -0.521848623136657  LUMO = 0.166901689113876
   mo_energy = [ -0.52184862   0.16690169   0.93689893   2.04301858   2.05069341
   4.05004717   6.45581973   6.46714839  25.960066   138.14656569]
multiplicity <S^2> = 2.0092706  2S+1 = 3.006174
E1 = -103.2314215636936  Ecoul = 28.41832594333225
cycle= 16 E= -74.8130956203614  delta_E= 2.84e-14  |g|= 2.72e-09  |ddm|= 3.9e-09
    CPU time for cycle= 16      0.07 sec, wall time      0.03 sec
diis-norm(errvec)=3.84512e-09
Linear dependence found in DIIS error vectors.
diis-c [-3.32465116e-16 -6.65787308e-03  1.37788284e-01  1.44776607e-01
  1.44796765e-01  1.44807714e-01  1.44812249e-01  1.44824459e-01
  1.44851794e-01]
alpha HOMO (B3u) = -0.611832003970844  LUMO (Ag) = 0.152539409365683
alpha irrep_nelec = [2, 0, 0, 0, 0, 1, 1, 1]
beta  irrep_nelec = [2, 0, 0, 0, 0, 0, 0, 1]
alpha-Ag nocc = 2  HOMO = -1.41959449548529  LUMO = 0.152539409365683
   mo_energy = [-20.71024273  -1.4195945    0.15253941   0.62282626   0.64659761
   1.07327067   2.03821602   2.10394481   5.09807449   6.82567843
   6.9151467   27.95518026  43.76378066  43.81936715 148.25342669]
alpha-B1g nocc = 0
   mo_energy = [ 0.64056728  2.08672112  6.89187679 43.80538298]
alpha-B2g nocc = 0
   mo_energy = [ 0.64056728  2.08672112  6.89187679 43.80538298]
alpha-B3g nocc = 0
   mo_energy = [ 0.62282626  2.03821602  6.82567843 43.76378066]
alpha-Au nocc = 0
   mo_energy = [2.01846943 6.37899779]
alpha-B1u nocc = 1  HOMO = -0.711030297173474  LUMO = 0.153068419647385
   mo_energy = [ -0.7110303    0.15306842   0.86489679   1.99504909   2.03282376
   3.92702756   6.33256773   6.40733503  25.8761275  138.11304269]
alpha-B2u nocc = 1  HOMO = -0.711030297173476  LUMO = 0.153068419647383
   mo_energy = [ -0.7110303    0.15306842   0.86489679   1.99504909   2.03282376
   3.92702756   6.33256773   6.40733503  25.8761275  138.11304269]
alpha-B3u nocc = 1  HOMO = -0.611832003970844  LUMO = 0.162645631887967
   mo_energy = [ -0.611832     0.16264563   0.90840276   2.01846943   2.03766996
   4.00266241   6.37899779   6.41687122  25.9319257  138.1383733 ]
beta-Ag nocc = 2  HOMO = -1.0771775707505  LUMO = 0.165490222266001
   mo_energy = [-20.63201367  -1.07717757   0.16549022   0.65591276   0.65747954
   1.136977     2.164934     2.19089326   5.1949534    7.00279082
   7.01554683  28.00939134  43.84042965  43.85707947 148.26818992]
beta-B1g nocc = 0
   mo_energy = [ 0.65595575  2.17065532  7.00575008 43.85289858]
beta-B2g nocc = 0
   mo_energy = [ 0.65595575  2.17065532  7.00575008 43.85289858]
beta-B3g nocc = 0
   mo_energy = [ 0.65747954  2.19089326  7.01554683 43.84042965]
beta-Au nocc = 0
   mo_energy = [2.04301858 6.45581973]
beta-B1u nocc = 0
   mo_energy = [6.48495583e-02 2.27015311e-01 1.01633898e+00 2.03331558e+00
 2.04878732e+00 4.09782791e+00 6.44150966e+00 6.46432664e+00
 2.59578334e+01 1.38131882e+02]
beta-B2u nocc = 0
   mo_energy = [6.48495583e-02 2.27015311e-01 1.01633898e+00 2.03331558e+00
 2.04878732e+00 4.09782791e+00 6.44150966e+00 6.46432664e+00
 2.59578334e+01 1.38131882e+02]
beta-B3u nocc = 1  HOMO = -0.521848623038759  LUMO = 0.166901689094595
   mo_energy = [ -0.52184862   0.16690169   0.93689893   2.04301858   2.05069341
   4.05004717   6.45581973   6.46714839  25.960066   138.14656569]
multiplicity <S^2> = 2.0092706  2S+1 = 3.006174
E1 = -103.2314215628582  Ecoul = 28.4183259424968
cycle= 17 E= -74.8130956203614  delta_E= -4.26e-14  |g|= 2.79e-09  |ddm|= 3.17e-09
    CPU time for cycle= 17      0.07 sec, wall time      0.02 sec
diis-norm(errvec)=3.94143e-09
Linear dependence found in DIIS error vectors.
diis-c [ 2.74188440e-16  1.48031462e-01 -2.64054930e-02  1.39868881e-01
  1.45017718e-01  1.47229968e-01  1.48378811e-01  1.48923419e-01
  1.48955235e-01]
alpha HOMO (B3u) = -0.611832004111422  LUMO (Ag) = 0.152539409424057
alpha irrep_nelec = [2, 0, 0, 0, 0, 1, 1, 1]
beta  irrep_nelec = [2, 0, 0, 0, 0, 0, 0, 1]
alpha-Ag nocc = 2  HOMO = -1.41959449513959  LUMO = 0.152539409424057
   mo_energy = [-20.71024273  -1.4195945    0.15253941   0.62282626   0.64659761
   1.07327067   2.03821602   2.10394481   5.09807449   6.82567843
   6.9151467   27.95518026  43.76378067  43.81936715 148.2534267 ]
alpha-B1g nocc = 0
   mo_energy = [ 0.64056728  2.08672112  6.89187679 43.80538298]
alpha-B2g nocc = 0
   mo_energy = [ 0.64056728  2.08672112  6.89187679 43.80538298]
alpha-B3g nocc = 0
   mo_energy = [ 0.62282626  2.03821602  6.82567843 43.76378067]
alpha-Au nocc = 0
   mo_energy = [2.01846943 6.37899779]
alpha-B1u nocc = 1  HOMO = -0.711030296630344  LUMO = 0.153068419660222
   mo_energy = [ -0.7110303    0.15306842   0.86489679   1.99504909   2.03282376
   3.92702756   6.33256773   6.40733503  25.8761275  138.11304269]
alpha-B2u nocc = 1  HOMO = -0.711030296630343  LUMO = 0.15306841966022
   mo_energy = [ -0.7110303    0.15306842   0.86489679   1.99504909   2.03282376
   3.92702756   6.33256773   6.40733503  25.8761275  138.11304269]
alpha-B3u nocc = 1  HOMO = -0.611832004111422  LUMO = 0.162645631868721
   mo_energy = [ -0.611832     0.16264563   0.90840276   2.01846943   2.03766996
   4.00266241   6.37899779   6.41687122  25.9319257  138.1383733 ]
beta-Ag nocc = 2  HOMO = -1.0771775694449  LUMO = 0.165490222301192
   mo_energy = [-20.63201366  -1.07717757   0.16549022   0.65591276   0.65747954
   1.136977     2.164934     2.19089326   5.1949534    7.00279082
   7.01554683  28.00939134  43.84042966  43.85707947 148.26818992]
beta-B1g nocc = 0
   mo_energy = [ 0.65595575  2.17065532  7.00575008 43.85289858]
beta-B2g nocc = 0
   mo_energy = [ 0.65595575  2.17065532  7.00575008 43.85289858]
beta-B3g nocc = 0
   mo_energy = [ 0.65747954  2.19089326  7.01554683 43.84042966]
beta-Au nocc = 0
   mo_energy = [2.04301858 6.45581973]
beta-B1u nocc = 0
[...]
alpha-B3u nocc = 1  HOMO = -0.611832004979588  LUMO = 0.162645631860425
   mo_energy = [ -0.611832     0.16264563   0.90840276   2.01846943   2.03766996
   4.00266241   6.37899779   6.41687122  25.9319257  138.1383733 ]
beta-Ag nocc = 2  HOMO = -1.07717756947435  LUMO = 0.165490222242791
   mo_energy = [-20.63201367  -1.07717757   0.16549022   0.65591276   0.65747954
   1.136977     2.164934     2.19089326   5.1949534    7.00279082
   7.01554683  28.00939134  43.84042966  43.85707947 148.26818992]
beta-B1g nocc = 0
   mo_energy = [ 0.65595575  2.17065532  7.00575008 43.85289858]
beta-B2g nocc = 0
   mo_energy = [ 0.65595575  2.17065532  7.00575008 43.85289858]
beta-B3g nocc = 0
   mo_energy = [ 0.65747954  2.19089326  7.01554683 43.84042966]
beta-Au nocc = 0
   mo_energy = [2.04301858 6.45581973]
beta-B1u nocc = 0
   mo_energy = [6.48495584e-02 2.27015312e-01 1.01633898e+00 2.03331558e+00
 2.04878732e+00 4.09782791e+00 6.44150966e+00 6.46432664e+00
 2.59578334e+01 1.38131882e+02]
beta-B2u nocc = 0
   mo_energy = [6.48495584e-02 2.27015312e-01 1.01633898e+00 2.03331558e+00
 2.04878732e+00 4.09782791e+00 6.44150966e+00 6.46432664e+00
 2.59578334e+01 1.38131882e+02]
beta-B3u nocc = 1  HOMO = -0.521848620753075  LUMO = 0.166901689232641
   mo_energy = [ -0.52184862   0.16690169   0.93689893   2.04301858   2.05069341
   4.05004717   6.45581973   6.46714839  25.960066   138.14656569]
multiplicity <S^2> = 2.0092706  2S+1 = 3.006174
E1 = -103.23142156201045  Ecoul = 28.418325941649094
cycle= 260 E= -74.8130956203614  delta_E= 2.84e-14  |g|= 6.48e-14  |ddm|= 9.73e-14
    CPU time for cycle= 260      0.06 sec, wall time      0.01 sec
diis-norm(errvec)=7.00365e-14
Linear dependence found in DIIS error vectors.
diis-c [-2.89052492e-16  1.25000000e-01  1.25000000e-01  1.25000000e-01
  1.25000000e-01  1.25000000e-01  1.25000000e-01  1.25000000e-01
  1.25000000e-01]
alpha HOMO (B3u) = -0.611832004979589  LUMO (Ag) = 0.152539409473772
alpha irrep_nelec = [2, 0, 0, 0, 0, 1, 1, 1]
beta  irrep_nelec = [2, 0, 0, 0, 0, 0, 0, 1]
alpha-Ag nocc = 2  HOMO = -1.4195944955755  LUMO = 0.152539409473772
   mo_energy = [-20.71024273  -1.4195945    0.15253941   0.62282626   0.64659761
   1.07327067   2.03821602   2.10394481   5.09807449   6.82567843
   6.9151467   27.95518026  43.76378066  43.81936715 148.2534267 ]
alpha-B1g nocc = 0
   mo_energy = [ 0.64056728  2.08672112  6.89187679 43.80538298]
alpha-B2g nocc = 0
   mo_energy = [ 0.64056728  2.08672112  6.89187679 43.80538298]
alpha-B3g nocc = 0
   mo_energy = [ 0.62282626  2.03821602  6.82567843 43.76378066]
alpha-Au nocc = 0
   mo_energy = [2.01846943 6.37899779]
alpha-B1u nocc = 1  HOMO = -0.711030297224964  LUMO = 0.153068419641103
   mo_energy = [ -0.7110303    0.15306842   0.86489679   1.99504909   2.03282376
   3.92702756   6.33256773   6.40733503  25.8761275  138.11304269]
alpha-B2u nocc = 1  HOMO = -0.71103029722496  LUMO = 0.153068419641104
   mo_energy = [ -0.7110303    0.15306842   0.86489679   1.99504909   2.03282376
   3.92702756   6.33256773   6.40733503  25.8761275  138.11304269]
alpha-B3u nocc = 1  HOMO = -0.611832004979589  LUMO = 0.162645631860424
   mo_energy = [ -0.611832     0.16264563   0.90840276   2.01846943   2.03766996
   4.00266241   6.37899779   6.41687122  25.9319257  138.1383733 ]
beta-Ag nocc = 2  HOMO = -1.07717756947436  LUMO = 0.165490222242786
   mo_energy = [-20.63201367  -1.07717757   0.16549022   0.65591276   0.65747954
   1.136977     2.164934     2.19089326   5.1949534    7.00279082
   7.01554683  28.00939134  43.84042966  43.85707947 148.26818992]
beta-B1g nocc = 0
   mo_energy = [ 0.65595575  2.17065532  7.00575008 43.85289858]
beta-B2g nocc = 0
   mo_energy = [ 0.65595575  2.17065532  7.00575008 43.85289858]
beta-B3g nocc = 0
   mo_energy = [ 0.65747954  2.19089326  7.01554683 43.84042966]
beta-Au nocc = 0
   mo_energy = [2.04301858 6.45581973]
beta-B1u nocc = 0
   mo_energy = [6.48495584e-02 2.27015312e-01 1.01633898e+00 2.03331558e+00
 2.04878732e+00 4.09782791e+00 6.44150966e+00 6.46432664e+00
 2.59578334e+01 1.38131882e+02]
beta-B2u nocc = 0
   mo_energy = [6.48495584e-02 2.27015312e-01 1.01633898e+00 2.03331558e+00
 2.04878732e+00 4.09782791e+00 6.44150966e+00 6.46432664e+00
 2.59578334e+01 1.38131882e+02]
beta-B3u nocc = 1  HOMO = -0.521848620753072  LUMO = 0.16690168923264
   mo_energy = [ -0.52184862   0.16690169   0.93689893   2.04301858   2.05069341
   4.05004717   6.45581973   6.46714839  25.960066   138.14656569]
multiplicity <S^2> = 2.0092706  2S+1 = 3.006174
E1 = -103.23142156201045  Ecoul = 28.418325941649066
cycle= 261 E= -74.8130956203614  delta_E= -2.84e-14  |g|= 9.25e-14  |ddm|= 2.95e-14
    CPU time for cycle= 261      0.06 sec, wall time      0.01 sec
diis-norm(errvec)=8.63758e-14
Linear dependence found in DIIS error vectors.
diis-c [-2.89052492e-16  1.25000000e-01  1.25000000e-01  1.25000000e-01
  1.25000000e-01  1.25000000e-01  1.25000000e-01  1.25000000e-01
  1.25000000e-01]
alpha HOMO (B3u) = -0.611832004979589  LUMO (Ag) = 0.152539409473764
alpha irrep_nelec = [2, 0, 0, 0, 0, 1, 1, 1]
beta  irrep_nelec = [2, 0, 0, 0, 0, 0, 0, 1]
alpha-Ag nocc = 2  HOMO = -1.41959449557551  LUMO = 0.152539409473764
   mo_energy = [-20.71024273  -1.4195945    0.15253941   0.62282626   0.64659761
   1.07327067   2.03821602   2.10394481   5.09807449   6.82567843
   6.9151467   27.95518026  43.76378066  43.81936715 148.2534267 ]
alpha-B1g nocc = 0
   mo_energy = [ 0.64056728  2.08672112  6.89187679 43.80538298]
alpha-B2g nocc = 0
   mo_energy = [ 0.64056728  2.08672112  6.89187679 43.80538298]
alpha-B3g nocc = 0
   mo_energy = [ 0.62282626  2.03821602  6.82567843 43.76378066]
alpha-Au nocc = 0
   mo_energy = [2.01846943 6.37899779]
alpha-B1u nocc = 1  HOMO = -0.711030297224962  LUMO = 0.153068419641104
   mo_energy = [ -0.7110303    0.15306842   0.86489679   1.99504909   2.03282376
   3.92702756   6.33256773   6.40733503  25.8761275  138.11304269]
alpha-B2u nocc = 1  HOMO = -0.711030297224961  LUMO = 0.153068419641103
   mo_energy = [ -0.7110303    0.15306842   0.86489679   1.99504909   2.03282376
   3.92702756   6.33256773   6.40733503  25.8761275  138.11304269]
alpha-B3u nocc = 1  HOMO = -0.611832004979589  LUMO = 0.162645631860425
   mo_energy = [ -0.611832     0.16264563   0.90840276   2.01846943   2.03766996
   4.00266241   6.37899779   6.41687122  25.9319257  138.1383733 ]
beta-Ag nocc = 2  HOMO = -1.07717756947437  LUMO = 0.165490222242798
   mo_energy = [-20.63201367  -1.07717757   0.16549022   0.65591276   0.65747954
   1.136977     2.164934     2.19089326   5.1949534    7.00279082
   7.01554683  28.00939134  43.84042966  43.85707947 148.26818992]
beta-B1g nocc = 0
   mo_energy = [ 0.65595575  2.17065532  7.00575008 43.85289858]
beta-B2g nocc = 0
   mo_energy = [ 0.65595575  2.17065532  7.00575008 43.85289858]
beta-B3g nocc = 0
   mo_energy = [ 0.65747954  2.19089326  7.01554683 43.84042966]
beta-Au nocc = 0
   mo_energy = [2.04301858 6.45581973]
beta-B1u nocc = 0
   mo_energy = [6.48495584e-02 2.27015312e-01 1.01633898e+00 2.03331558e+00
 2.04878732e+00 4.09782791e+00 6.44150966e+00 6.46432664e+00
 2.59578334e+01 1.38131882e+02]
beta-B2u nocc = 0
   mo_energy = [6.48495584e-02 2.27015312e-01 1.01633898e+00 2.03331558e+00
 2.04878732e+00 4.09782791e+00 6.44150966e+00 6.46432664e+00
 2.59578334e+01 1.38131882e+02]
beta-B3u nocc = 1  HOMO = -0.521848620753073  LUMO = 0.166901689232639
   mo_energy = [ -0.52184862   0.16690169   0.93689893   2.04301858   2.05069341
   4.05004717   6.45581973   6.46714839  25.960066   138.14656569]
multiplicity <S^2> = 2.0092706  2S+1 = 3.006174
E1 = -103.23142156201042  Ecoul = 28.418325941649076
cycle= 262 E= -74.8130956203614  delta_E= 4.26e-14  |g|= 9.62e-14  |ddm|= 9.33e-15
    CPU time for cycle= 262      0.06 sec, wall time      0.02 sec
diis-norm(errvec)=1.59741e-13
Linear dependence found in DIIS error vectors.
diis-c [-2.89052492e-16  1.25000000e-01  1.25000000e-01  1.25000000e-01
  1.25000000e-01  1.25000000e-01  1.25000000e-01  1.25000000e-01
  1.25000000e-01]
alpha HOMO (B3u) = -0.61183200497959  LUMO (Ag) = 0.152539409473768
alpha irrep_nelec = [2, 0, 0, 0, 0, 1, 1, 1]
beta  irrep_nelec = [2, 0, 0, 0, 0, 0, 0, 1]
alpha-Ag nocc = 2  HOMO = -1.41959449557551  LUMO = 0.152539409473768
   mo_energy = [-20.71024273  -1.4195945    0.15253941   0.62282626   0.64659761
   1.07327067   2.03821602   2.10394481   5.09807449   6.82567843
   6.9151467   27.95518026  43.76378066  43.81936715 148.2534267 ]
alpha-B1g nocc = 0
   mo_energy = [ 0.64056728  2.08672112  6.89187679 43.80538298]
alpha-B2g nocc = 0
   mo_energy = [ 0.64056728  2.08672112  6.89187679 43.80538298]
alpha-B3g nocc = 0
   mo_energy = [ 0.62282626  2.03821602  6.82567843 43.76378066]
alpha-Au nocc = 0
   mo_energy = [2.01846943 6.37899779]
alpha-B1u nocc = 1  HOMO = -0.71103029722496  LUMO = 0.153068419641104
   mo_energy = [ -0.7110303    0.15306842   0.86489679   1.99504909   2.03282376
   3.92702756   6.33256773   6.40733503  25.8761275  138.11304269]
alpha-B2u nocc = 1  HOMO = -0.711030297224961  LUMO = 0.153068419641104
   mo_energy = [ -0.7110303    0.15306842   0.86489679   1.99504909   2.03282376
   3.92702756   6.33256773   6.40733503  25.8761275  138.11304269]
alpha-B3u nocc = 1  HOMO = -0.61183200497959  LUMO = 0.162645631860424
   mo_energy = [ -0.611832     0.16264563   0.90840276   2.01846943   2.03766996
   4.00266241   6.37899779   6.41687122  25.9319257  138.1383733 ]
beta-Ag nocc = 2  HOMO = -1.07717756947435  LUMO = 0.16549022224278
   mo_energy = [-20.63201367  -1.07717757   0.16549022   0.65591276   0.65747954
   1.136977     2.164934     2.19089326   5.1949534    7.00279082
   7.01554683  28.00939134  43.84042966  43.85707947 148.26818992]
beta-B1g nocc = 0
   mo_energy = [ 0.65595575  2.17065532  7.00575008 43.85289858]
beta-B2g nocc = 0
   mo_energy = [ 0.65595575  2.17065532  7.00575008 43.85289858]
beta-B3g nocc = 0
   mo_energy = [ 0.65747954  2.19089326  7.01554683 43.84042966]
beta-Au nocc = 0
   mo_energy = [2.04301858 6.45581973]
beta-B1u nocc = 0
   mo_energy = [6.48495584e-02 2.27015312e-01 1.01633898e+00 2.03331558e+00
 2.04878732e+00 4.09782791e+00 6.44150966e+00 6.46432664e+00
 2.59578334e+01 1.38131882e+02]
beta-B2u nocc = 0
   mo_energy = [6.48495584e-02 2.27015312e-01 1.01633898e+00 2.03331558e+00
 2.04878732e+00 4.09782791e+00 6.44150966e+00 6.46432664e+00
 2.59578334e+01 1.38131882e+02]
beta-B3u nocc = 1  HOMO = -0.521848620753073  LUMO = 0.16690168923264
   mo_energy = [ -0.52184862   0.16690169   0.93689893   2.04301858   2.05069341
   4.05004717   6.45581973   6.46714839  25.960066   138.14656569]
multiplicity <S^2> = 2.0092706  2S+1 = 3.006174
E1 = -103.23142156201041  Ecoul = 28.418325941649066
cycle= 263 E= -74.8130956203613  delta_E= 1.42e-14  |g|= 9.03e-14  |ddm|= 6.83e-14
    CPU time for cycle= 263      0.06 sec, wall time      0.02 sec
diis-norm(errvec)=1.07978e-13
Linear dependence found in DIIS error vectors.
diis-c [-2.89052492e-16  1.25000000e-01  1.25000000e-01  1.25000000e-01
  1.25000000e-01  1.25000000e-01  1.25000000e-01  1.25000000e-01
  1.25000000e-01]
alpha HOMO (B3u) = -0.61183200497959  LUMO (Ag) = 0.152539409473767
alpha irrep_nelec = [2, 0, 0, 0, 0, 1, 1, 1]
beta  irrep_nelec = [2, 0, 0, 0, 0, 0, 0, 1]
alpha-Ag nocc = 2  HOMO = -1.41959449557549  LUMO = 0.152539409473767
   mo_energy = [-20.71024273  -1.4195945    0.15253941   0.62282626   0.64659761
   1.07327067   2.03821602   2.10394481   5.09807449   6.82567843
   6.9151467   27.95518026  43.76378066  43.81936715 148.2534267 ]
alpha-B1g nocc = 0
   mo_energy = [ 0.64056728  2.08672112  6.89187679 43.80538298]
alpha-B2g nocc = 0
   mo_energy = [ 0.64056728  2.08672112  6.89187679 43.80538298]
alpha-B3g nocc = 0
   mo_energy = [ 0.62282626  2.03821602  6.82567843 43.76378066]
alpha-Au nocc = 0
   mo_energy = [2.01846943 6.37899779]
alpha-B1u nocc = 1  HOMO = -0.711030297224963  LUMO = 0.153068419641105
   mo_energy = [ -0.7110303    0.15306842   0.86489679   1.99504909   2.03282376
   3.92702756   6.33256773   6.40733503  25.8761275  138.11304269]
alpha-B2u nocc = 1  HOMO = -0.711030297224961  LUMO = 0.153068419641103
   mo_energy = [ -0.7110303    0.15306842   0.86489679   1.99504909   2.03282376
   3.92702756   6.33256773   6.40733503  25.8761275  138.11304269]
alpha-B3u nocc = 1  HOMO = -0.61183200497959  LUMO = 0.162645631860424
   mo_energy = [ -0.611832     0.16264563   0.90840276   2.01846943   2.03766996
   4.00266241   6.37899779   6.41687122  25.9319257  138.1383733 ]
beta-Ag nocc = 2  HOMO = -1.07717756947437  LUMO = 0.16549022224278
   mo_energy = [-20.63201367  -1.07717757   0.16549022   0.65591276   0.65747954
   1.136977     2.164934     2.19089326   5.1949534    7.00279082
   7.01554683  28.00939134  43.84042966  43.85707947 148.26818992]
beta-B1g nocc = 0
   mo_energy = [ 0.65595575  2.17065532  7.00575008 43.85289858]
beta-B2g nocc = 0
   mo_energy = [ 0.65595575  2.17065532  7.00575008 43.85289858]
beta-B3g nocc = 0
   mo_energy = [ 0.65747954  2.19089326  7.01554683 43.84042966]
beta-Au nocc = 0
   mo_energy = [2.04301858 6.45581973]
beta-B1u nocc = 0
   mo_energy = [6.48495584e-02 2.27015312e-01 1.01633898e+00 2.03331558e+00
 2.04878732e+00 4.09782791e+00 6.44150966e+00 6.46432664e+00
 2.59578334e+01 1.38131882e+02]
beta-B2u nocc = 0
   mo_energy = [6.48495584e-02 2.27015312e-01 1.01633898e+00 2.03331558e+00
 2.04878732e+00 4.09782791e+00 6.44150966e+00 6.46432664e+00
 2.59578334e+01 1.38131882e+02]
beta-B3u nocc = 1  HOMO = -0.521848620753073  LUMO = 0.166901689232639
   mo_energy = [ -0.52184862   0.16690169   0.93689893   2.04301858   2.05069341
   4.05004717   6.45581973   6.46714839  25.960066   138.14656569]
multiplicity <S^2> = 2.0092706  2S+1 = 3.006174
E1 = -103.23142156201041  Ecoul = 28.418325941649044
cycle= 264 E= -74.8130956203614  delta_E= -2.84e-14  |g|= 9.36e-14  |ddm|= 1.49e-14
    CPU time for cycle= 264      0.06 sec, wall time      0.01 sec
diis-norm(errvec)=7.32726e-14
Linear dependence found in DIIS error vectors.
diis-c [-2.89052492e-16  1.25000000e-01  1.25000000e-01  1.25000000e-01
  1.25000000e-01  1.25000000e-01  1.25000000e-01  1.25000000e-01
  1.25000000e-01]
alpha HOMO (B3u) = -0.611832004979588  LUMO (Ag) = 0.152539409473772
alpha irrep_nelec = [2, 0, 0, 0, 0, 1, 1, 1]
beta  irrep_nelec = [2, 0, 0, 0, 0, 0, 0, 1]
alpha-Ag nocc = 2  HOMO = -1.41959449557549  LUMO = 0.152539409473772
   mo_energy = [-20.71024273  -1.4195945    0.15253941   0.62282626   0.64659761
   1.07327067   2.03821602   2.10394481   5.09807449   6.82567843
   6.9151467   27.95518026  43.76378066  43.81936715 148.2534267 ]
alpha-B1g nocc = 0
   mo_energy = [ 0.64056728  2.08672112  6.89187679 43.80538298]
alpha-B2g nocc = 0
   mo_energy = [ 0.64056728  2.08672112  6.89187679 43.80538298]
alpha-B3g nocc = 0
   mo_energy = [ 0.62282626  2.03821602  6.82567843 43.76378066]
alpha-Au nocc = 0
   mo_energy = [2.01846943 6.37899779]
alpha-B1u nocc = 1  HOMO = -0.711030297224962  LUMO = 0.153068419641104
   mo_energy = [ -0.7110303    0.15306842   0.86489679   1.99504909   2.03282376
   3.92702756   6.33256773   6.40733503  25.8761275  138.11304269]
alpha-B2u nocc = 1  HOMO = -0.711030297224959  LUMO = 0.153068419641103
   mo_energy = [ -0.7110303    0.15306842   0.86489679   1.99504909   2.03282376
   3.92702756   6.33256773   6.40733503  25.8761275  138.11304269]
alpha-B3u nocc = 1  HOMO = -0.611832004979588  LUMO = 0.162645631860423
   mo_energy = [ -0.611832     0.16264563   0.90840276   2.01846943   2.03766996
   4.00266241   6.37899779   6.41687122  25.9319257  138.1383733 ]
beta-Ag nocc = 2  HOMO = -1.07717756947435  LUMO = 0.165490222242792
   mo_energy = [-20.63201367  -1.07717757   0.16549022   0.65591276   0.65747954
   1.136977     2.164934     2.19089326   5.1949534    7.00279082
   7.01554683  28.00939134  43.84042966  43.85707947 148.26818992]
beta-B1g nocc = 0
   mo_energy = [ 0.65595575  2.17065532  7.00575008 43.85289858]
beta-B2g nocc = 0
   mo_energy = [ 0.65595575  2.17065532  7.00575008 43.85289858]
beta-B3g nocc = 0
   mo_energy = [ 0.65747954  2.19089326  7.01554683 43.84042966]
beta-Au nocc = 0
   mo_energy = [2.04301858 6.45581973]
beta-B1u nocc = 0
   mo_energy = [6.48495584e-02 2.27015312e-01 1.01633898e+00 2.03331558e+00
 2.04878732e+00 4.09782791e+00 6.44150966e+00 6.46432664e+00
 2.59578334e+01 1.38131882e+02]
beta-B2u nocc = 0
   mo_energy = [6.48495584e-02 2.27015312e-01 1.01633898e+00 2.03331558e+00
 2.04878732e+00 4.09782791e+00 6.44150966e+00 6.46432664e+00
 2.59578334e+01 1.38131882e+02]
beta-B3u nocc = 1  HOMO = -0.521848620753074  LUMO = 0.166901689232641
   mo_energy = [ -0.52184862   0.16690169   0.93689893   2.04301858   2.05069341
   4.05004717   6.45581973   6.46714839  25.960066   138.14656569]
multiplicity <S^2> = 2.0092706  2S+1 = 3.006174
E1 = -103.23142156201044  Ecoul = 28.418325941649076
cycle= 265 E= -74.8130956203614  delta_E=    0  |g|= 9.99e-14  |ddm|= 8.44e-15
    CPU time for cycle= 265      0.06 sec, wall time      0.01 sec
alpha HOMO (B3u) = -0.611832004979587  LUMO (Ag) = 0.15253940947377
alpha irrep_nelec = [2, 0, 0, 0, 0, 1, 1, 1]
beta  irrep_nelec = [2, 0, 0, 0, 0, 0, 0, 1]
alpha-Ag nocc = 2  HOMO = -1.41959449557552  LUMO = 0.15253940947377
   mo_energy = [-20.71024273  -1.4195945    0.15253941   0.62282626   0.64659761
   1.07327067   2.03821602   2.10394481   5.09807449   6.82567843
   6.9151467   27.95518026  43.76378066  43.81936715 148.2534267 ]
alpha-B1g nocc = 0
   mo_energy = [ 0.64056728  2.08672112  6.89187679 43.80538298]
alpha-B2g nocc = 0
   mo_energy = [ 0.64056728  2.08672112  6.89187679 43.80538298]
alpha-B3g nocc = 0
   mo_energy = [ 0.62282626  2.03821602  6.82567843 43.76378066]
alpha-Au nocc = 0
   mo_energy = [2.01846943 6.37899779]
alpha-B1u nocc = 1  HOMO = -0.711030297224959  LUMO = 0.153068419641105
   mo_energy = [ -0.7110303    0.15306842   0.86489679   1.99504909   2.03282376
   3.92702756   6.33256773   6.40733503  25.8761275  138.11304269]
alpha-B2u nocc = 1  HOMO = -0.71103029722496  LUMO = 0.153068419641103
   mo_energy = [ -0.7110303    0.15306842   0.86489679   1.99504909   2.03282376
   3.92702756   6.33256773   6.40733503  25.8761275  138.11304269]
alpha-B3u nocc = 1  HOMO = -0.611832004979587  LUMO = 0.162645631860423
   mo_energy = [ -0.611832     0.16264563   0.90840276   2.01846943   2.03766996
   4.00266241   6.37899779   6.41687122  25.9319257  138.1383733 ]
beta-Ag nocc = 2  HOMO = -1.07717756947436  LUMO = 0.1654902222428
   mo_energy = [-20.63201367  -1.07717757   0.16549022   0.65591276   0.65747954
   1.136977     2.164934     2.19089326   5.1949534    7.00279082
   7.01554683  28.00939134  43.84042966  43.85707947 148.26818992]
beta-B1g nocc = 0
   mo_energy = [ 0.65595575  2.17065532  7.00575008 43.85289858]
beta-B2g nocc = 0
   mo_energy = [ 0.65595575  2.17065532  7.00575008 43.85289858]
beta-B3g nocc = 0
   mo_energy = [ 0.65747954  2.19089326  7.01554683 43.84042966]
beta-Au nocc = 0
   mo_energy = [2.04301858 6.45581973]
beta-B1u nocc = 0
   mo_energy = [6.48495584e-02 2.27015312e-01 1.01633898e+00 2.03331558e+00
 2.04878732e+00 4.09782791e+00 6.44150966e+00 6.46432664e+00
 2.59578334e+01 1.38131882e+02]
beta-B2u nocc = 0
   mo_energy = [6.48495584e-02 2.27015312e-01 1.01633898e+00 2.03331558e+00
 2.04878732e+00 4.09782791e+00 6.44150966e+00 6.46432664e+00
 2.59578334e+01 1.38131882e+02]
beta-B3u nocc = 1  HOMO = -0.521848620753072  LUMO = 0.166901689232641
   mo_energy = [ -0.52184862   0.16690169   0.93689893   2.04301858   2.05069341
   4.05004717   6.45581973   6.46714839  25.960066   138.14656569]
multiplicity <S^2> = 2.0092706  2S+1 = 3.006174
E1 = -103.23142156201047  Ecoul = 28.41832594164908
Extra cycle  E= -74.8130956203614  delta_E= -2.84e-14  |g|= 9.34e-14  |ddm|= 8.44e-15
    CPU time for scf_cycle     17.74 sec, wall time     17.76 sec
    CPU time for SCF     17.76 sec, wall time     17.83 sec
converged SCF energy = -74.8130956203614  <S^2> = 2.0092706  2S+1 = 3.006174
