#INFO: **** input file is /lustre06/project/6058907/jaafar1/PySCF-MRCC/Oxygen/Cation/+1/AE/aCV2Z/CC-7/input.py ****
import pyscf
from pyscf import cc, lib, tools, scf, symm, ao2mo
from pyscf.gto.basis import parse_gaussian
from pyscf.cc.mrcc import MRCCInterface

name = 'out'
mol = pyscf.M(
    atom = '''
        O
    ''',
    unit = 'angstrom',
    basis = {
            'O' : parse_gaussian.load('O-aCVDZ-EMSL.gbs', 'O')
    },
    charge = 1,
    spin = 3,
    symmetry = True,
    verbose = 9,
    symmetry_subgroup = 'D2h',
    output = name +'.txt',
    max_memory = 4000,
)
mf = mol.UHF().set(conv_tol=1e-15,max_cycle=9999,ddm_tol=1e-14,direct_scf_tol=1e-14,chkfile=name+'.chk',init_guess='atom',irrep_nelec={'Ag': 4, 'B3u':1 , 'B2u':1 ,'B1u':1 })
mf.kernel()

#pyscf.tools.fcidump.from_chkfile_uhf('FCIdump',name+'.chk',tol=1e-18, float_format='% 0.20E',molpro_orbsym=False,orbsym=None)

pyscf.tools.fcidump.from_scf_uhf(mf,'fort.55',tol=1e-18, float_format='% 0.20E',molpro_orbsym=False)

#MRCCInterface.run_mrcc(mf, fort_file='fort.55', mrcc_input_file='MINP', tol=1e-18, float_format='% 0.20E', molpro_orbsym=False)
#INFO: ******************** input file end ********************


System: uname_result(system='Linux', node='nc31017.narval.calcul.quebec', release='4.18.0-553.34.1.el8_10.x86_64', version='#1 SMP Wed Jan 8 14:44:18 UTC 2025', machine='x86_64')  Threads 4
Python 3.12.4 (main, Jun  7 2024, 23:47:47) [GCC 13.3.0]
numpy 2.1.1  scipy 1.14.1  h5py 3.12.0
Date: Sat Feb  8 10:49:40 2025
PySCF version 2.7.0
PySCF path  /home/jaafar1/projects/def-nike-ab/jaafar1/VENV/MRCCInterface/lib/python3.12/site-packages/pyscf

[CONFIG] ARGPARSE = False
[CONFIG] DEBUG = False
[CONFIG] MAX_MEMORY = 4000
[CONFIG] TMPDIR = /tmp
[CONFIG] UNIT = angstrom
[CONFIG] VERBOSE = 3
[CONFIG] conf_file = None
[INPUT] verbose = 9
[INPUT] max_memory = 4000 
[INPUT] num. atoms = 1
[INPUT] num. electrons = 7
[INPUT] charge = 1
[INPUT] spin (= nelec alpha-beta = 2S) = 3
[INPUT] symmetry True subgroup D2h
[INPUT] Mole.unit = angstrom
[INPUT] Symbol           X                Y                Z      unit          X                Y                Z       unit  Magmom
[INPUT]  1 O      0.000000000000   0.000000000000   0.000000000000 AA    0.000000000000   0.000000000000   0.000000000000 Bohr   0.0
[INPUT] ---------------- BASIS SET ---------------- 
[INPUT] l, kappa, [nprim/nctr], expnt,             c_1 c_2 ...
[INPUT] O
[INPUT] 0    0    [9    /2   ]  11720             0.00071 -0.00016
                                1759              0.00547 -0.001263
                                400.8             0.027837 -0.006267
                                113.7             0.1048 -0.025716
                                37.03             0.283062 -0.070924
                                13.27             0.448719 -0.165411
                                5.025             0.270952 -0.116955
                                1.013             0.015458 0.557368
                                0.3023            -0.002585 0.572759
[INPUT] 0    0    [1    /1   ]  8.215                1
[INPUT] 0    0    [1    /1   ]  0.3023               1
[INPUT] 0    0    [1    /1   ]  0.07896              1
[INPUT] 1    0    [1    /1   ]  26.056               1
[INPUT] 1    0    [4    /1   ]  17.7              0.043018
                                3.854             0.228913
                                1.046             0.508728
                                0.2753            0.460531
[INPUT] 1    0    [1    /1   ]  0.2753               1
[INPUT] 1    0    [1    /1   ]  0.06856              1
[INPUT] 2    0    [1    /1   ]  1.185                1
[INPUT] 2    0    [1    /1   ]  0.332                1

nuclear repulsion = 0
point group symmetry = SO3, use subgroup D2h
symmetry origin: [0. 0. 0.]
symmetry axis x: [1. 0. 0.]
symmetry axis y: [0. 1. 0.]
symmetry axis z: [0. 0. 1.]
num. orbitals of irrep Ag = 9
num. orbitals of irrep B1g = 2
num. orbitals of irrep B2g = 2
num. orbitals of irrep B3g = 2
num. orbitals of irrep B1u = 4
num. orbitals of irrep B2u = 4
num. orbitals of irrep B3u = 4
number of shells = 10
number of NR pGTOs = 43
number of NR cGTOs = 27
basis = {'O': [[0, [11720.0, 0.00071, -0.00016], [1759.0, 0.00547, -0.001263], [400.8, 0.027837, -0.006267], [113.7, 0.1048, -0.025716], [37.03, 0.283062, -0.070924], [13.27, 0.448719, -0.165411], [5.025, 0.270952, -0.116955], [1.013, 0.015458, 0.557368], [0.3023, -0.002585, 0.572759]], [0, [8.215, 1.0]], [0, [0.3023, 1.0]], [0, [0.07896, 1.0]], [1, [26.056, 1.0]], [1, [17.7, 0.043018], [3.854, 0.228913], [1.046, 0.508728], [0.2753, 0.460531]], [1, [0.2753, 1.0]], [1, [0.06856, 1.0]], [2, [1.185, 1.0]], [2, [0.332, 1.0]]]}
ecp = {}
bas 0, expnt(s) = [1.172e+04 1.759e+03 4.008e+02 1.137e+02 3.703e+01 1.327e+01 5.025e+00
 1.013e+00 3.023e-01]
bas 1, expnt(s) = [8.215]
bas 2, expnt(s) = [0.3023]
bas 3, expnt(s) = [0.07896]
bas 4, expnt(s) = [26.056]
bas 5, expnt(s) = [17.7     3.854   1.046   0.2753]
bas 6, expnt(s) = [0.2753]
bas 7, expnt(s) = [0.06856]
bas 8, expnt(s) = [1.185]
bas 9, expnt(s) = [0.332]
CPU time:         0.93
arg.atm = [[ 8 20  1 23  0  0]]
arg.bas = [[ 0  0  9  2  0 24 33  0]
 [ 0  0  1  1  0 51 52  0]
 [ 0  0  1  1  0 53 54  0]
 [ 0  0  1  1  0 55 56  0]
 [ 0  1  1  1  0 57 58  0]
 [ 0  1  4  1  0 59 63  0]
 [ 0  1  1  1  0 67 68  0]
 [ 0  1  1  1  0 69 70  0]
 [ 0  2  1  1  0 71 72  0]
 [ 0  2  1  1  0 73 74  0]]
arg.env = [ 0.00000000e+00  0.00000000e+00  0.00000000e+00  0.00000000e+00
  0.00000000e+00  0.00000000e+00  0.00000000e+00  0.00000000e+00
  0.00000000e+00  0.00000000e+00  0.00000000e+00  0.00000000e+00
  0.00000000e+00  0.00000000e+00  0.00000000e+00  0.00000000e+00
  0.00000000e+00  0.00000000e+00  0.00000000e+00  0.00000000e+00
  0.00000000e+00  0.00000000e+00  0.00000000e+00  0.00000000e+00
  1.17200000e+04  1.75900000e+03  4.00800000e+02  1.13700000e+02
  3.70300000e+01  1.32700000e+01  5.02500000e+00  1.01300000e+00
  3.02300000e-01  2.02054829e+00  3.75363365e+00  6.29989616e+00
  9.21927582e+00  1.07352468e+01  7.88211612e+00  2.29752152e+00
  3.94344297e-02 -2.66259024e-03 -4.55334710e-01 -8.66698003e-01
 -1.41830798e+00 -2.26224080e+00 -2.68982218e+00 -2.90557871e+00
 -9.91712777e-01  1.42188405e+00  5.89950534e-01  8.21500000e+00
  1.22594419e+01  3.02300000e-01  1.03001520e+00  7.89600000e-02
  3.76331333e-01  2.60560000e+01  1.71739057e+02  1.77000000e+01
  3.85400000e+00  1.04600000e+00  2.75300000e-01  4.55618253e+00
  3.60615518e+00  1.56994545e+00  2.67917418e-01  2.75300000e-01
  5.81757722e-01  6.85600000e-02  1.02346478e-01  1.18500000e+00
  3.51185438e+00  3.32000000e-01  3.78896883e-01]
ecpbas  = []


******** <class 'pyscf.scf.uhf_symm.SymAdaptedUHF'> ********
method = SymAdaptedUHF
initial guess = atom
damping factor = 0
level_shift factor = 0
DIIS = <class 'pyscf.scf.diis.CDIIS'>
diis_start_cycle = 1
diis_space = 8
diis_damp = 0
SCF conv_tol = 1e-15
SCF conv_tol_grad = None
SCF ddm_tol = 1e-14
SCF max_cycles = 9999
direct_scf = True
direct_scf_tol = 1e-14
chkfile to save SCF result = out.chk
max_memory 4000 MB (current use 90 MB)
number electrons alpha = 5  beta = 2
irrep_nelec {'Ag': 4, 'B3u': 1, 'B2u': 1, 'B1u': 1}
Freeze 7 electrons in irreps ['Ag', 'B3u', 'B2u', 'B1u']
    0 free electrons in irreps B1g B2g B3g
cond(S) = 97.82394776871499
Set gradient conv threshold to 3.16228e-08
Spherically averaged atomic HF for {'O'}


******** <class 'pyscf.scf.atom_hf.AtomSphAverageRHF'> ********
method = AtomSphAverageRHF
initial guess = minao
damping factor = 0
level_shift factor = 0
DIIS = <class 'pyscf.scf.diis.CDIIS'>
diis_start_cycle = 1
diis_space = 8
diis_damp = 0
SCF conv_tol = 1e-09
SCF conv_tol_grad = None
SCF ddm_tol = 1e-10
SCF max_cycles = 50
direct_scf = True
direct_scf_tol = 1e-13
chkfile to save SCF result = /tmp/tmpyp0i33l7
max_memory 4000 MB (current use 91 MB)
atom = O
Set gradient conv threshold to 3.16228e-05
Initial guess from minao.
Nelec from initial guess = 7.99849383326443
E1 = -103.0877330136882  E_coul = 28.82155323081698
init E= -74.2661797828712
l = 0  e_0 = -20.694506
l = 0  e_1 = -1.26173771
l = 0  e_2 = 0.18572579
l = 0  e_3 = 1.66568026
l = 0  e_4 = 34.1456193
l = 1  e_0 = -0.387001034
l = 1  e_1 = 0.197431199
l = 1  e_2 = 1.31540275
l = 1  e_3 = 39.1412746
l = 2  e_0 = 0.955809337
l = 2  e_1 = 3.48489432
    CPU time for initialize scf      0.06 sec, wall time      0.10 sec
l = 0  e_0 = -20.694506
l = 0  e_1 = -1.26173771
l = 0  e_2 = 0.18572579
l = 0  e_3 = 1.66568026
l = 0  e_4 = 34.1456193
l = 1  e_0 = -0.387001034
l = 1  e_1 = 0.197431199
l = 1  e_2 = 1.31540275
l = 1  e_3 = 39.1412746
l = 2  e_0 = 0.955809337
l = 2  e_1 = 3.48489432
l = 0  occ = 2 + 0
l = 1  occ = 0 + 1.333
l = 2  occ = 0 + 0
l = 3  occ = 0 + 0
E1 = -102.2751425475385  E_coul = 27.99811273891946
cycle= 1 E= -74.277029808619  delta_E= -0.0109  |g|=    0  |ddm|= 0.175
    CPU time for cycle= 1      0.01 sec, wall time      0.00 sec
diis-norm(errvec)=0.142689
diis-c [-0.02036027  1.        ]
l = 0  e_0 = -20.8970227
l = 0  e_1 = -1.3407807
l = 0  e_2 = 0.177273299
l = 0  e_3 = 1.60906976
l = 0  e_4 = 33.9562588
l = 1  e_0 = -0.451601849
l = 1  e_1 = 0.192312685
l = 1  e_2 = 1.26417908
l = 1  e_3 = 38.9403136
l = 2  e_0 = 0.935337606
l = 2  e_1 = 3.41756011
l = 0  occ = 2 + 0
l = 1  occ = 0 + 1.333
l = 2  occ = 0 + 0
l = 3  occ = 0 + 0
E1 = -102.7032659626179  E_coul = 28.424573474696263
cycle= 2 E= -74.2786924879216  delta_E= -0.00166  |g|=    0  |ddm|= 0.16
    CPU time for cycle= 2      0.01 sec, wall time      0.00 sec
diis-norm(errvec)=0.0620619
diis-c [-2.79135051e-04  2.96660493e-01  7.03339507e-01]
l = 0  e_0 = -20.8233487
l = 0  e_1 = -1.31432331
l = 0  e_2 = 0.180331363
l = 0  e_3 = 1.62843226
l = 0  e_4 = 34.0247384
l = 1  e_0 = -0.426519977
l = 1  e_1 = 0.194513278
l = 1  e_2 = 1.28404637
l = 1  e_3 = 39.0133065
l = 2  e_0 = 0.943418329
l = 2  e_1 = 3.44313532
l = 0  occ = 2 + 0
l = 1  occ = 0 + 1.333
l = 2  occ = 0 + 0
l = 3  occ = 0 + 0
E1 = -102.55541307735501  E_coul = 28.27622482472012
cycle= 3 E= -74.2791882526349  delta_E= -0.000496  |g|=    0  |ddm|= 0.0308
    CPU time for cycle= 3      0.01 sec, wall time      0.00 sec
diis-norm(errvec)=0.00609163
diis-c [-3.88616457e-07 -1.01163101e-01 -1.33189877e-01  1.23435298e+00]
l = 0  e_0 = -20.8264324
l = 0  e_1 = -1.31628525
l = 0  e_2 = 0.180113718
l = 0  e_3 = 1.62718469
l = 0  e_4 = 34.0217637
l = 1  e_0 = -0.427268648
l = 1  e_1 = 0.194467738
l = 1  e_2 = 1.28343948
l = 1  e_3 = 39.010305
l = 2  e_0 = 0.943124686
l = 2  e_1 = 3.44220417
l = 0  occ = 2 + 0
l = 1  occ = 0 + 1.333
l = 2  occ = 0 + 0
l = 3  occ = 0 + 0
E1 = -102.5627420427112  E_coul = 28.28354976613739
cycle= 4 E= -74.2791922765738  delta_E= -4.02e-06  |g|=    0  |ddm|= 0.00921
    CPU time for cycle= 4      0.01 sec, wall time      0.00 sec
diis-norm(errvec)=0.000207609
diis-c [-4.53582420e-09  5.07033698e-03  8.69601381e-03 -7.80638000e-02
  1.06429745e+00]
l = 0  e_0 = -20.8265768
l = 0  e_1 = -1.31638138
l = 0  e_2 = 0.180081724
l = 0  e_3 = 1.62709456
l = 0  e_4 = 34.0216206
l = 1  e_0 = -0.427344939
l = 1  e_1 = 0.194451665
l = 1  e_2 = 1.283358
l = 1  e_3 = 39.0101649
l = 2  e_0 = 0.943071804
l = 2  e_1 = 3.44210067
l = 0  occ = 2 + 0
l = 1  occ = 0 + 1.333
l = 2  occ = 0 + 0
l = 3  occ = 0 + 0
E1 = -102.56305357324446  E_coul = 28.283861291201493
cycle= 5 E= -74.279192282043  delta_E= -5.47e-09  |g|=    0  |ddm|= 0.000224
    CPU time for cycle= 5      0.01 sec, wall time      0.00 sec
diis-norm(errvec)=9.68985e-06
diis-c [-1.40020169e-11  1.02084328e-04 -6.20006445e-05  1.63008064e-04
 -1.19749663e-01  1.11954657e+00]
l = 0  e_0 = -20.8265803
l = 0  e_1 = -1.31638725
l = 0  e_2 = 0.18007962
l = 0  e_3 = 1.62709052
l = 0  e_4 = 34.0216166
l = 1  e_0 = -0.427349425
l = 1  e_1 = 0.194450931
l = 1  e_2 = 1.28335419
l = 1  e_3 = 39.0101611
l = 2  e_0 = 0.943067986
l = 2  e_1 = 3.44209533
l = 0  occ = 2 + 0
l = 1  occ = 0 + 1.333
l = 2  occ = 0 + 0
l = 3  occ = 0 + 0
E1 = -102.56304315362713  E_coul = 28.283850871546242
cycle= 6 E= -74.2791922820809  delta_E= -3.79e-11  |g|=    0  |ddm|= 1.13e-05
    CPU time for cycle= 6      0.01 sec, wall time      0.00 sec
diis-norm(errvec)=1.40447e-06
diis-c [-8.05075471e-14 -1.82173419e-05  8.28801259e-07  1.08519030e-04
  5.27900332e-03 -9.97209061e-02  1.09435077e+00]
l = 0  e_0 = -20.8265816
l = 0  e_1 = -1.31638801
l = 0  e_2 = 0.180079462
l = 0  e_3 = 1.62708994
l = 0  e_4 = 34.0216153
l = 1  e_0 = -0.427350062
l = 1  e_1 = 0.194450854
l = 1  e_2 = 1.28335366
l = 1  e_3 = 39.0101598
l = 2  e_0 = 0.943067649
l = 2  e_1 = 3.44209461
l = 0  occ = 2 + 0
l = 1  occ = 0 + 1.333
l = 2  occ = 0 + 0
l = 3  occ = 0 + 0
E1 = -102.56304522738151  E_coul = 28.283852945300367
cycle= 7 E= -74.2791922820811  delta_E= -2.56e-13  |g|=    0  |ddm|= 1.61e-06
    CPU time for cycle= 7      0.01 sec, wall time      0.00 sec
diis-norm(errvec)=4.72841e-08
diis-c [-3.86404618e-17  1.89905121e-06  5.36757685e-07 -1.33173504e-05
 -1.03756271e-05  7.91057085e-03 -1.25141626e-01  1.11725231e+00]
l = 0  e_0 = -20.8265816
l = 0  e_1 = -1.31638799
l = 0  e_2 = 0.180079467
l = 0  e_3 = 1.62708995
l = 0  e_4 = 34.0216154
l = 1  e_0 = -0.427350048
l = 1  e_1 = 0.194450856
l = 1  e_2 = 1.28335367
l = 1  e_3 = 39.0101598
l = 2  e_0 = 0.943067657
l = 2  e_1 = 3.44209463
l = 0  occ = 2 + 0
l = 1  occ = 0 + 1.333
l = 2  occ = 0 + 0
l = 3  occ = 0 + 0
E1 = -102.5630451885352  E_coul = 28.28385290645403
cycle= 8 E= -74.2791922820812  delta_E= -2.84e-14  |g|=    0  |ddm|= 2.98e-08
    CPU time for cycle= 8      0.02 sec, wall time      0.00 sec
diis-norm(errvec)=4.44581e-10
Linear dependence found in DIIS error vectors.
diis-c [-1.58972239e-16  8.52495306e-07  2.64506384e-07 -6.11785384e-06
  1.49249290e-06  3.44605079e-03 -5.53081775e-02  4.93673796e-01
  5.58191839e-01]
l = 0  e_0 = -20.8265816
l = 0  e_1 = -1.31638799
l = 0  e_2 = 0.180079467
l = 0  e_3 = 1.62708995
l = 0  e_4 = 34.0216154
l = 1  e_0 = -0.427350048
l = 1  e_1 = 0.194450856
l = 1  e_2 = 1.28335367
l = 1  e_3 = 39.0101598
l = 2  e_0 = 0.943067657
l = 2  e_1 = 3.44209463
l = 0  occ = 2 + 0
l = 1  occ = 0 + 1.333
l = 2  occ = 0 + 0
l = 3  occ = 0 + 0
E1 = -102.56304518816255  E_coul = 28.283852906081275
cycle= 9 E= -74.2791922820813  delta_E= -9.95e-14  |g|=    0  |ddm|= 2.34e-10
    CPU time for cycle= 9      0.01 sec, wall time      0.00 sec
diis-norm(errvec)=2.13524e-10
Linear dependence found in DIIS error vectors.
diis-c [-9.08967175e-16  3.56007053e-01 -5.00794814e-07  2.52443131e-06
  5.86397735e-06  1.81841531e-03 -3.19450803e-02  3.18226813e-01
  3.55884912e-01]
l = 0  e_0 = -20.8265816
l = 0  e_1 = -1.31638799
l = 0  e_2 = 0.180079467
l = 0  e_3 = 1.62708995
l = 0  e_4 = 34.0216154
l = 1  e_0 = -0.427350048
l = 1  e_1 = 0.194450856
l = 1  e_2 = 1.28335367
l = 1  e_3 = 39.0101598
l = 2  e_0 = 0.943067657
l = 2  e_1 = 3.44209463
l = 0  occ = 2 + 0
l = 1  occ = 0 + 1.333
l = 2  occ = 0 + 0
l = 3  occ = 0 + 0
E1 = -102.5630451870408  E_coul = 28.283852904959645
cycle= 10 E= -74.2791922820812  delta_E= 1.14e-13  |g|=    0  |ddm|= 2.66e-10
    CPU time for cycle= 10      0.01 sec, wall time      0.00 sec
diis-norm(errvec)=4.58376e-10
Linear dependence found in DIIS error vectors.
diis-c [-2.14554728e-16  2.57147807e-01  2.57135859e-01  3.37059346e-08
  1.18888820e-04 -8.34142749e-05 -1.23411272e-02  2.40970946e-01
  2.57051007e-01]
l = 0  e_0 = -20.8265816
l = 0  e_1 = -1.31638799
l = 0  e_2 = 0.180079467
l = 0  e_3 = 1.62708995
l = 0  e_4 = 34.0216154
l = 1  e_0 = -0.427350048
l = 1  e_1 = 0.194450856
l = 1  e_2 = 1.28335367
l = 1  e_3 = 39.0101598
l = 2  e_0 = 0.943067657
l = 2  e_1 = 3.44209463
l = 0  occ = 2 + 0
l = 1  occ = 0 + 1.333
l = 2  occ = 0 + 0
l = 3  occ = 0 + 0
E1 = -102.56304518850347  E_coul = 28.283852906422272
cycle= 11 E= -74.2791922820812  delta_E= -4.26e-14  |g|=    0  |ddm|= 7.44e-10
    CPU time for cycle= 11      0.01 sec, wall time      0.00 sec
diis-norm(errvec)=6.29373e-10
Linear dependence found in DIIS error vectors.
diis-c [-6.19504964e-17  2.04875200e-01  2.04858732e-01  2.04808826e-01
  1.07437764e-04 -7.16723893e-05 -1.16177711e-02  1.92234040e-01
  2.04805207e-01]
l = 0  e_0 = -20.8265816
l = 0  e_1 = -1.31638799
l = 0  e_2 = 0.180079467
l = 0  e_3 = 1.62708995
l = 0  e_4 = 34.0216154
l = 1  e_0 = -0.427350048
l = 1  e_1 = 0.194450856
l = 1  e_2 = 1.28335367
l = 1  e_3 = 39.0101598
l = 2  e_0 = 0.943067657
l = 2  e_1 = 3.44209463
l = 0  occ = 2 + 0
l = 1  occ = 0 + 1.333
l = 2  occ = 0 + 0
l = 3  occ = 0 + 0
E1 = -102.56304518830909  E_coul = 28.283852906227956
cycle= 12 E= -74.2791922820811  delta_E= 5.68e-14  |g|=    0  |ddm|= 1.69e-10
    CPU time for cycle= 12      0.02 sec, wall time      0.00 sec
diis-norm(errvec)=4.08868e-10
Linear dependence found in DIIS error vectors.
diis-c [-9.55793226e-16  1.65991686e-01  1.65934855e-01  1.66026453e-01
  1.66017908e-01  1.82281923e-04  1.80331421e-03  1.68052582e-01
  1.65990920e-01]
l = 0  e_0 = -20.8265816
l = 0  e_1 = -1.31638799
l = 0  e_2 = 0.180079467
l = 0  e_3 = 1.62708995
l = 0  e_4 = 34.0216154
l = 1  e_0 = -0.427350048
l = 1  e_1 = 0.194450856
l = 1  e_2 = 1.28335367
l = 1  e_3 = 39.0101598
l = 2  e_0 = 0.943067657
l = 2  e_1 = 3.44209463
l = 0  occ = 2 + 0
l = 1  occ = 0 + 1.333
l = 2  occ = 0 + 0
l = 3  occ = 0 + 0
E1 = -102.56304518577868  E_coul = 28.283852903697596
cycle= 13 E= -74.2791922820811  delta_E= 5.68e-14  |g|=    0  |ddm|= 8.44e-10
    CPU time for cycle= 13      0.01 sec, wall time      0.00 sec
diis-norm(errvec)=1.48872e-09
Linear dependence found in DIIS error vectors.
diis-c [-1.23930833e-16  1.42228053e-01  1.42186506e-01  1.42265745e-01
  1.42256755e-01  1.42132323e-01  2.25587900e-03  1.44450823e-01
  1.42223916e-01]
l = 0  e_0 = -20.8265816
l = 0  e_1 = -1.31638799
l = 0  e_2 = 0.180079467
l = 0  e_3 = 1.62708995
l = 0  e_4 = 34.0216154
l = 1  e_0 = -0.427350048
l = 1  e_1 = 0.194450856
l = 1  e_2 = 1.28335367
l = 1  e_3 = 39.0101598
l = 2  e_0 = 0.943067657
l = 2  e_1 = 3.44209463
l = 0  occ = 2 + 0
l = 1  occ = 0 + 1.333
l = 2  occ = 0 + 0
l = 3  occ = 0 + 0
E1 = -102.56304518700648  E_coul = 28.283852904925453
cycle= 14 E= -74.279192282081  delta_E= 5.68e-14  |g|=    0  |ddm|= 7.66e-10
    CPU time for cycle= 14      0.02 sec, wall time      0.00 sec
diis-norm(errvec)=1.15321e-09
Linear dependence found in DIIS error vectors.
diis-c [-4.1157153e-16  1.2500000e-01  1.2500000e-01  1.2500000e-01
  1.2500000e-01  1.2500000e-01  1.2500000e-01  1.2500000e-01
  1.2500000e-01]
l = 0  e_0 = -20.8265816
l = 0  e_1 = -1.31638799
l = 0  e_2 = 0.180079467
l = 0  e_3 = 1.62708995
l = 0  e_4 = 34.0216154
l = 1  e_0 = -0.427350048
l = 1  e_1 = 0.194450856
l = 1  e_2 = 1.28335367
l = 1  e_3 = 39.0101598
l = 2  e_0 = 0.943067657
l = 2  e_1 = 3.44209463
l = 0  occ = 2 + 0
l = 1  occ = 0 + 1.333
l = 2  occ = 0 + 0
l = 3  occ = 0 + 0
E1 = -102.56304518473763  E_coul = 28.283852902656555
cycle= 15 E= -74.2791922820811  delta_E= -5.68e-14  |g|=    0  |ddm|= 3.37e-10
    CPU time for cycle= 15      0.01 sec, wall time      0.00 sec
diis-norm(errvec)=1.46502e-09
Linear dependence found in DIIS error vectors.
diis-c [-2.89052492e-16  1.25000000e-01  1.25000000e-01  1.25000000e-01
  1.25000000e-01  1.25000000e-01  1.25000000e-01  1.25000000e-01
  1.25000000e-01]
l = 0  e_0 = -20.8265816
l = 0  e_1 = -1.31638799
l = 0  e_2 = 0.180079467
l = 0  e_3 = 1.62708995
l = 0  e_4 = 34.0216154
l = 1  e_0 = -0.427350048
l = 1  e_1 = 0.194450856
l = 1  e_2 = 1.28335367
l = 1  e_3 = 39.0101598
l = 2  e_0 = 0.943067657
l = 2  e_1 = 3.44209463
l = 0  occ = 2 + 0
l = 1  occ = 0 + 1.333
l = 2  occ = 0 + 0
l = 3  occ = 0 + 0
E1 = -102.563045188094  E_coul = 28.283852906012907
cycle= 16 E= -74.2791922820811  delta_E=    0  |g|=    0  |ddm|= 6.11e-10
    CPU time for cycle= 16      0.01 sec, wall time      0.00 sec
diis-norm(errvec)=1.87902e-10
Linear dependence found in DIIS error vectors.
diis-c [-2.89052492e-16  1.25000000e-01  1.25000000e-01  1.25000000e-01
  1.25000000e-01  1.25000000e-01  1.25000000e-01  1.25000000e-01
  1.25000000e-01]
l = 0  e_0 = -20.8265816
l = 0  e_1 = -1.31638799
l = 0  e_2 = 0.180079467
l = 0  e_3 = 1.62708995
l = 0  e_4 = 34.0216154
l = 1  e_0 = -0.427350048
l = 1  e_1 = 0.194450856
l = 1  e_2 = 1.28335367
l = 1  e_3 = 39.0101598
l = 2  e_0 = 0.943067657
l = 2  e_1 = 3.44209463
l = 0  occ = 2 + 0
l = 1  occ = 0 + 1.333
l = 2  occ = 0 + 0
l = 3  occ = 0 + 0
E1 = -102.56304518810919  E_coul = 28.283852906028073
cycle= 17 E= -74.2791922820811  delta_E= -2.84e-14  |g|=    0  |ddm|= 2.18e-11
    CPU time for cycle= 17      0.01 sec, wall time      0.00 sec
l = 0  e_0 = -20.8265816
l = 0  e_1 = -1.31638799
l = 0  e_2 = 0.180079467
l = 0  e_3 = 1.62708995
l = 0  e_4 = 34.0216154
l = 1  e_0 = -0.427350048
l = 1  e_1 = 0.194450856
l = 1  e_2 = 1.28335367
l = 1  e_3 = 39.0101598
l = 2  e_0 = 0.943067657
l = 2  e_1 = 3.44209463
l = 0  occ = 2 + 0
l = 1  occ = 0 + 1.333
l = 2  occ = 0 + 0
l = 3  occ = 0 + 0
E1 = -102.56304518767537  E_coul = 28.283852905594298
Extra cycle  E= -74.2791922820811  delta_E= 4.26e-14  |g|=    0  |ddm|= 2.18e-11
    CPU time for scf_cycle      0.27 sec, wall time      0.15 sec
    CPU time for SCF      0.27 sec, wall time      0.15 sec
Atomic HF for atom  O  converged. SCF energy = -74.2791922820811

Atom O, E = -74.2791922821
Nelec from initial guess = (np.float64(3.9999999999999987), np.float64(3.9999999999999987))
E1 = -102.56304518767537  Ecoul = 28.283852905594298
init E= -74.2791922820811
    CPU time for initialize scf      0.34 sec, wall time      0.19 sec
alpha HOMO (B2u) = -0.42735004812915  LUMO (Ag) = 0.180079467312182
alpha irrep_nelec = [2, 0, 0, 0, 1, 1, 1]
beta  irrep_nelec = [2, 0, 0, 0, 0, 0, 0]
alpha-Ag nocc = 2  HOMO = -1.31638798759764  LUMO = 0.180079467312182
   mo_energy = [-20.8265816   -1.31638799   0.18007947   0.94306766   0.94306766
   1.62708995   3.44209463   3.44209463  34.02161536]
alpha-B1g nocc = 0
   mo_energy = [0.94306766 3.44209463]
alpha-B2g nocc = 0
   mo_energy = [0.94306766 3.44209463]
alpha-B3g nocc = 0
   mo_energy = [0.94306766 3.44209463]
alpha-B1u nocc = 1  HOMO = -0.427350048129151  LUMO = 0.194450855874204
   mo_energy = [-0.42735005  0.19445086  1.28335367 39.01015982]
alpha-B2u nocc = 1  HOMO = -0.42735004812915  LUMO = 0.194450855874205
   mo_energy = [-0.42735005  0.19445086  1.28335367 39.01015982]
alpha-B3u nocc = 1  HOMO = -0.427350048129153  LUMO = 0.194450855874205
   mo_energy = [-0.42735005  0.19445086  1.28335367 39.01015982]
beta-Ag nocc = 2  HOMO = -1.31638798759764  LUMO = 0.180079467312182
   mo_energy = [-20.8265816   -1.31638799   0.18007947   0.94306766   0.94306766
   1.62708995   3.44209463   3.44209463  34.02161536]
beta-B1g nocc = 0
   mo_energy = [0.94306766 3.44209463]
beta-B2g nocc = 0
   mo_energy = [0.94306766 3.44209463]
beta-B3g nocc = 0
   mo_energy = [0.94306766 3.44209463]
beta-B1u nocc = 0
   mo_energy = [-0.42735005  0.19445086  1.28335367 39.01015982]
beta-B2u nocc = 0
   mo_energy = [-0.42735005  0.19445086  1.28335367 39.01015982]
beta-B3u nocc = 0
   mo_energy = [-0.42735005  0.19445086  1.28335367 39.01015982]
multiplicity <S^2> = 3.75  2S+1 = 4
E1 = -96.41231991990301  Ecoul = 22.21839898107536
cycle= 1 E= -74.1939209388277  delta_E= 0.0853  |g|= 0.537  |ddm|= 0.604
    CPU time for cycle= 1      0.05 sec, wall time      0.01 sec
diis-norm(errvec)=0.75936
diis-c [-0.57662793  1.        ]
alpha HOMO (B2u) = -1.4666753036744  LUMO (Ag) = -0.148400232483643
alpha irrep_nelec = [2, 0, 0, 0, 1, 1, 1]
beta  irrep_nelec = [2, 0, 0, 0, 0, 0, 0]
alpha-Ag nocc = 2  HOMO = -2.23665473712334  LUMO = -0.148400232483643
   mo_energy = [-21.90970212  -2.23665474  -0.14840023   0.44459067   0.44459067
   1.00235036   2.6804656    2.6804656   32.98652074]
alpha-B1g nocc = 0
   mo_energy = [0.44459067 2.6804656 ]
alpha-B2g nocc = 0
   mo_energy = [0.44459067 2.6804656 ]
alpha-B3g nocc = 0
   mo_energy = [0.44459067 2.6804656 ]
alpha-B1u nocc = 1  HOMO = -1.4666753036744  LUMO = -0.0814252515826926
   mo_energy = [-1.4666753  -0.08142525  0.66987874 37.94971281]
alpha-B2u nocc = 1  HOMO = -1.4666753036744  LUMO = -0.0814252515826926
   mo_energy = [-1.4666753  -0.08142525  0.66987874 37.94971281]
alpha-B3u nocc = 1  HOMO = -1.4666753036744  LUMO = -0.0814252515826924
   mo_energy = [-1.4666753  -0.08142525  0.66987874 37.94971281]
beta-Ag nocc = 2  HOMO = -1.77270308960049  LUMO = -0.112147331723812
   mo_energy = [-21.81447351  -1.77270309  -0.11214733   0.54484405   0.54484405
   1.11113248   2.86438566   2.86438566  33.05327654]
beta-B1g nocc = 0
   mo_energy = [0.54484405 2.86438566]
beta-B2g nocc = 0
   mo_energy = [0.54484405 2.86438566]
beta-B3g nocc = 0
   mo_energy = [0.54484405 2.86438566]
beta-B1u nocc = 0
   mo_energy = [-0.58326674 -0.05273359  0.80580039 38.01761019]
beta-B2u nocc = 0
   mo_energy = [-0.58326674 -0.05273359  0.80580039 38.01761019]
beta-B3u nocc = 0
   mo_energy = [-0.58326674 -0.05273359  0.80580039 38.01761019]
multiplicity <S^2> = 3.7503816  2S+1 = 4.0001908
E1 = -98.50193009250123  Ecoul = 24.153895082488667
cycle= 2 E= -74.3480350100126  delta_E= -0.154  |g|= 0.127  |ddm|= 0.402
    CPU time for cycle= 2      0.06 sec, wall time      0.01 sec
diis-norm(errvec)=0.18021
diis-c [-0.02782844  0.08426649  0.91573351]
alpha HOMO (B2u) = -1.32784791586383  LUMO (Ag) = -0.121223080431714
alpha irrep_nelec = [2, 0, 0, 0, 1, 1, 1]
beta  irrep_nelec = [2, 0, 0, 0, 0, 0, 0]
alpha-Ag nocc = 2  HOMO = -2.07751227954798  LUMO = -0.121223080431714
   mo_energy = [-21.43041524  -2.07751228  -0.12122308   0.50906586   0.50906586
   1.11377037   2.8267352    2.8267352   33.43521011]
alpha-B1g nocc = 0
   mo_energy = [0.50906586 2.8267352 ]
alpha-B2g nocc = 0
   mo_energy = [0.50906586 2.8267352 ]
alpha-B3g nocc = 0
   mo_energy = [0.50906586 2.8267352 ]
alpha-B1u nocc = 1  HOMO = -1.32784791586383  LUMO = -0.0668816251643551
   mo_energy = [-1.32784792 -0.06688163  0.76364067 38.42692811]
alpha-B2u nocc = 1  HOMO = -1.32784791586383  LUMO = -0.066881625164355
   mo_energy = [-1.32784792 -0.06688163  0.76364067 38.42692811]
alpha-B3u nocc = 1  HOMO = -1.32784791586383  LUMO = -0.0668816251643552
   mo_energy = [-1.32784792 -0.06688163  0.76364067 38.42692811]
beta-Ag nocc = 2  HOMO = -1.56435245702623  LUMO = -0.096592883475945
   mo_energy = [-21.30537641  -1.56435246  -0.09659288   0.58423395   0.58423395
   1.23826376   3.04175952   3.04175952  33.52198437]
beta-B1g nocc = 0
   mo_energy = [0.58423395 3.04175952]
beta-B2g nocc = 0
   mo_energy = [0.58423395 3.04175952]
beta-B3g nocc = 0
   mo_energy = [0.58423395 3.04175952]
beta-B1u nocc = 0
   mo_energy = [-3.95656763e-01 -2.96047226e-02  9.54379540e-01  3.85175369e+01]
beta-B2u nocc = 0
   mo_energy = [-3.95656763e-01 -2.96047226e-02  9.54379540e-01  3.85175369e+01]
beta-B3u nocc = 0
   mo_energy = [-3.95656763e-01 -2.96047226e-02  9.54379540e-01  3.85175369e+01]
multiplicity <S^2> = 3.7526614  2S+1 = 4.0013305
E1 = -98.39362720331283  Ecoul = 24.04052455317206
cycle= 3 E= -74.3531026501408  delta_E= -0.00507  |g|= 0.0315  |ddm|= 0.223
    CPU time for cycle= 3      0.05 sec, wall time      0.01 sec
diis-norm(errvec)=0.0445818
diis-c [-9.12727051e-04 -2.89692725e-02 -2.16553026e-01  1.24552230e+00]
alpha HOMO (B1u) = -1.32664884317337  LUMO (Ag) = -0.117781561842134
alpha irrep_nelec = [2, 0, 0, 0, 1, 1, 1]
beta  irrep_nelec = [2, 0, 0, 0, 0, 0, 0]
alpha-Ag nocc = 2  HOMO = -2.07167345173087  LUMO = -0.117781561842134
   mo_energy = [-21.41339232  -2.07167345  -0.11778156   0.51639791   0.51639791
   1.12110633   2.83451649   2.83451649  33.45196054]
alpha-B1g nocc = 0
   mo_energy = [0.51639791 2.83451649]
alpha-B2g nocc = 0
   mo_energy = [0.51639791 2.83451649]
alpha-B3g nocc = 0
   mo_energy = [0.51639791 2.83451649]
alpha-B1u nocc = 1  HOMO = -1.32664884317337  LUMO = -0.0654717988181303
   mo_energy = [-1.32664884 -0.0654718   0.7685895  38.44425172]
alpha-B2u nocc = 1  HOMO = -1.32664884317337  LUMO = -0.0654717988181302
   mo_energy = [-1.32664884 -0.0654718   0.7685895  38.44425172]
alpha-B3u nocc = 1  HOMO = -1.32664884317337  LUMO = -0.0654717988181306
   mo_energy = [-1.32664884 -0.0654718   0.7685895  38.44425172]
beta-Ag nocc = 2  HOMO = -1.53836658788616  LUMO = -0.0937735267884524
   mo_energy = [-21.28201884  -1.53836659  -0.09377353   0.58672772   0.58672772
   1.25530273   3.05580794   3.05580794  33.54609814]
beta-B1g nocc = 0
   mo_energy = [0.58672772 3.05580794]
beta-B2g nocc = 0
   mo_energy = [0.58672772 3.05580794]
beta-B3g nocc = 0
   mo_energy = [0.58672772 3.05580794]
beta-B1u nocc = 0
   mo_energy = [-3.84025980e-01 -2.69239921e-02  9.66695388e-01  3.85383800e+01]
beta-B2u nocc = 0
   mo_energy = [-3.84025980e-01 -2.69239921e-02  9.66695388e-01  3.85383800e+01]
beta-B3u nocc = 0
   mo_energy = [-3.84025980e-01 -2.69239921e-02  9.66695388e-01  3.85383800e+01]
multiplicity <S^2> = 3.7546883  2S+1 = 4.0023435
E1 = -98.40844971271666  Ecoul = 24.054657050404415
cycle= 4 E= -74.3537926623122  delta_E= -0.00069  |g|= 0.00609  |ddm|= 0.0829
    CPU time for cycle= 4      0.06 sec, wall time      0.01 sec
diis-norm(errvec)=0.00861084
diis-c [-1.34772563e-05  7.67518309e-04  2.96671735e-02 -3.01282664e-01
  1.27084797e+00]
alpha HOMO (B2u) = -1.32854476074732  LUMO (Ag) = -0.118008675071838
alpha irrep_nelec = [2, 0, 0, 0, 1, 1, 1]
beta  irrep_nelec = [2, 0, 0, 0, 0, 0, 0]
alpha-Ag nocc = 2  HOMO = -2.07366469350594  LUMO = -0.118008675071838
   mo_energy = [-21.41617751  -2.07366469  -0.11800868   0.51645788   0.51645788
   1.11999847   2.83300433   2.83300433  33.44937195]
alpha-B1g nocc = 0
   mo_energy = [0.51645788 2.83300433]
alpha-B2g nocc = 0
   mo_energy = [0.51645788 2.83300433]
alpha-B3g nocc = 0
   mo_energy = [0.51645788 2.83300433]
alpha-B1u nocc = 1  HOMO = -1.32854476074732  LUMO = -0.0657833726232563
   mo_energy = [-1.32854476 -0.06578337  0.76733289 38.44234874]
alpha-B2u nocc = 1  HOMO = -1.32854476074732  LUMO = -0.0657833726232567
   mo_energy = [-1.32854476 -0.06578337  0.76733289 38.44234874]
alpha-B3u nocc = 1  HOMO = -1.32854476074732  LUMO = -0.0657833726232568
   mo_energy = [-1.32854476 -0.06578337  0.76733289 38.44234874]
beta-Ag nocc = 2  HOMO = -1.53591827548608  LUMO = -0.0935907983651919
   mo_energy = [-21.28199823  -1.53591828  -0.0935908    0.5859068    0.5859068
   1.25627257   3.05506271   3.05506271  33.54625668]
beta-B1g nocc = 0
   mo_energy = [0.5859068  3.05506271]
beta-B2g nocc = 0
   mo_energy = [0.5859068  3.05506271]
beta-B3g nocc = 0
   mo_energy = [0.5859068  3.05506271]
beta-B1u nocc = 0
   mo_energy = [-3.84858475e-01 -2.69080684e-02  9.66414261e-01  3.85375749e+01]
beta-B2u nocc = 0
   mo_energy = [-3.84858475e-01 -2.69080684e-02  9.66414261e-01  3.85375749e+01]
beta-B3u nocc = 0
   mo_energy = [-3.84858475e-01 -2.69080684e-02  9.66414261e-01  3.85375749e+01]
multiplicity <S^2> = 3.7552762  2S+1 = 4.0026372
E1 = -98.41494416010241  Ecoul = 24.06112653291075
cycle= 5 E= -74.3538176271917  delta_E= -2.5e-05  |g|= 0.000484  |ddm|= 0.0162
    CPU time for cycle= 5      0.05 sec, wall time      0.01 sec
diis-norm(errvec)=0.000684815
diis-c [-3.11997486e-08  2.14416035e-04 -3.77325443e-03  4.51461002e-02
 -2.41352193e-01  1.19976493e+00]
alpha HOMO (B3u) = -1.32854067482599  LUMO (Ag) = -0.118052977181677
alpha irrep_nelec = [2, 0, 0, 0, 1, 1, 1]
beta  irrep_nelec = [2, 0, 0, 0, 0, 0, 0]
alpha-Ag nocc = 2  HOMO = -2.07377477916661  LUMO = -0.118052977181677
   mo_energy = [-21.41605135  -2.07377478  -0.11805298   0.51644654   0.51644654
   1.11993896   2.8330041    2.8330041   33.44946037]
alpha-B1g nocc = 0
   mo_energy = [0.51644654 2.8330041 ]
alpha-B2g nocc = 0
   mo_energy = [0.51644654 2.8330041 ]
alpha-B3g nocc = 0
   mo_energy = [0.51644654 2.8330041 ]
alpha-B1u nocc = 1  HOMO = -1.328540674826  LUMO = -0.0657919691430931
   mo_energy = [-1.32854067 -0.06579197  0.76732305 38.44256703]
alpha-B2u nocc = 1  HOMO = -1.32854067482599  LUMO = -0.0657919691430924
   mo_energy = [-1.32854067 -0.06579197  0.76732305 38.44256703]
alpha-B3u nocc = 1  HOMO = -1.32854067482599  LUMO = -0.0657919691430928
   mo_energy = [-1.32854067 -0.06579197  0.76732305 38.44256703]
beta-Ag nocc = 2  HOMO = -1.53574375449228  LUMO = -0.0935821530652321
   mo_energy = [-21.2816052   -1.53574375  -0.09358215   0.58585317   0.58585317
   1.25635522   3.05508816   3.05508816  33.54661642]
beta-B1g nocc = 0
   mo_energy = [0.58585317 3.05508816]
beta-B2g nocc = 0
   mo_energy = [0.58585317 3.05508816]
beta-B3g nocc = 0
   mo_energy = [0.58585317 3.05508816]
beta-B1u nocc = 0
   mo_energy = [-3.84837979e-01 -2.68913415e-02  9.66477136e-01  3.85378522e+01]
beta-B2u nocc = 0
   mo_energy = [-3.84837979e-01 -2.68913415e-02  9.66477136e-01  3.85378522e+01]
beta-B3u nocc = 0
   mo_energy = [-3.84837979e-01 -2.68913415e-02  9.66477136e-01  3.85378522e+01]
multiplicity <S^2> = 3.7553148  2S+1 = 4.0026565
E1 = -98.41485111196485  Ecoul = 24.06103335196123
cycle= 6 E= -74.3538177600036  delta_E= -1.33e-07  |g|= 2e-05  |ddm|= 0.000878
    CPU time for cycle= 6      0.05 sec, wall time      0.01 sec
diis-norm(errvec)=2.82389e-05
diis-c [-1.47651105e-10 -2.01434018e-05  4.58967505e-04 -5.51137395e-03
  3.00823919e-02 -1.69441309e-01  1.14443147e+00]
alpha HOMO (B3u) = -1.3285417760721  LUMO (Ag) = -0.11805266581017
alpha irrep_nelec = [2, 0, 0, 0, 1, 1, 1]
beta  irrep_nelec = [2, 0, 0, 0, 0, 0, 0]
alpha-Ag nocc = 2  HOMO = -2.07378408634506  LUMO = -0.11805266581017
   mo_energy = [-21.41604722  -2.07378409  -0.11805267   0.51644738   0.51644738
   1.11993644   2.83300672   2.83300672  33.44946206]
alpha-B1g nocc = 0
   mo_energy = [0.51644738 2.83300672]
alpha-B2g nocc = 0
   mo_energy = [0.51644738 2.83300672]
alpha-B3g nocc = 0
   mo_energy = [0.51644738 2.83300672]
alpha-B1u nocc = 1  HOMO = -1.3285417760721  LUMO = -0.0657898304332806
   mo_energy = [-1.32854178 -0.06578983  0.76732808 38.44257141]
alpha-B2u nocc = 1  HOMO = -1.3285417760721  LUMO = -0.0657898304332809
   mo_energy = [-1.32854178 -0.06578983  0.76732808 38.44257141]
alpha-B3u nocc = 1  HOMO = -1.3285417760721  LUMO = -0.06578983043328
   mo_energy = [-1.32854178 -0.06578983  0.76732808 38.44257141]
beta-Ag nocc = 2  HOMO = -1.53574036261761  LUMO = -0.0935809468428513
   mo_energy = [-21.28160315  -1.53574036  -0.09358095   0.58585448   0.58585448
   1.25635854   3.05509129   3.05509129  33.54661955]
beta-B1g nocc = 0
   mo_energy = [0.58585448 3.05509129]
beta-B2g nocc = 0
   mo_energy = [0.58585448 3.05509129]
beta-B3g nocc = 0
   mo_energy = [0.58585448 3.05509129]
beta-B1u nocc = 0
   mo_energy = [-3.84835589e-01 -2.68907479e-02  9.66479404e-01  3.85378556e+01]
beta-B2u nocc = 0
   mo_energy = [-3.84835589e-01 -2.68907479e-02  9.66479404e-01  3.85378556e+01]
beta-B3u nocc = 0
   mo_energy = [-3.84835589e-01 -2.68907479e-02  9.66479404e-01  3.85378556e+01]
multiplicity <S^2> = 3.7553158  2S+1 = 4.002657
E1 = -98.41483061895883  Ecoul = 24.0610128587633
cycle= 7 E= -74.3538177601955  delta_E= -1.92e-10  |g|= 1.67e-06  |ddm|= 4.8e-05
    CPU time for cycle= 7      0.06 sec, wall time      0.01 sec
diis-norm(errvec)=2.36226e-06
diis-c [-1.22144258e-12  8.38063255e-07 -6.06115782e-05  7.52133679e-04
 -4.04701021e-03  2.27308976e-02 -1.80340327e-01  1.16096408e+00]
alpha HOMO (B2u) = -1.32854147225415  LUMO (Ag) = -0.11805288958653
alpha irrep_nelec = [2, 0, 0, 0, 1, 1, 1]
beta  irrep_nelec = [2, 0, 0, 0, 0, 0, 0]
alpha-Ag nocc = 2  HOMO = -2.07378489138143  LUMO = -0.11805288958653
   mo_energy = [-21.41604846  -2.07378489  -0.11805289   0.51644721   0.51644721
   1.11993572   2.83300634   2.83300634  33.44946082]
alpha-B1g nocc = 0
   mo_energy = [0.51644721 2.83300634]
alpha-B2g nocc = 0
   mo_energy = [0.51644721 2.83300634]
alpha-B3g nocc = 0
   mo_energy = [0.51644721 2.83300634]
alpha-B1u nocc = 1  HOMO = -1.32854147225415  LUMO = -0.0657900222576362
   mo_energy = [-1.32854147 -0.06579002  0.76732772 38.44257037]
alpha-B2u nocc = 1  HOMO = -1.32854147225415  LUMO = -0.0657900222576359
   mo_energy = [-1.32854147 -0.06579002  0.76732772 38.44257037]
alpha-B3u nocc = 1  HOMO = -1.32854147225416  LUMO = -0.0657900222576366
   mo_energy = [-1.32854147 -0.06579002  0.76732772 38.44257037]
beta-Ag nocc = 2  HOMO = -1.5357409484906  LUMO = -0.0935810831882264
   mo_energy = [-21.28160405  -1.53574095  -0.09358108   0.58585435   0.58585435
   1.25635812   3.05509078   3.05509078  33.54661871]
beta-B1g nocc = 0
   mo_energy = [0.58585435 3.05509078]
beta-B2g nocc = 0
   mo_energy = [0.58585435 3.05509078]
beta-B3g nocc = 0
   mo_energy = [0.58585435 3.05509078]
beta-B1u nocc = 0
   mo_energy = [-3.84836010e-01 -2.68908603e-02  9.66478966e-01  3.85378546e+01]
beta-B2u nocc = 0
   mo_energy = [-3.84836010e-01 -2.68908603e-02  9.66478966e-01  3.85378546e+01]
beta-B3u nocc = 0
   mo_energy = [-3.84836010e-01 -2.68908603e-02  9.66478966e-01  3.85378546e+01]
multiplicity <S^2> = 3.7553159  2S+1 = 4.002657
E1 = -98.4148332045464  Ecoul = 24.061015444349465
cycle= 8 E= -74.3538177601969  delta_E= -1.39e-12  |g|= 1.03e-07  |ddm|= 3.26e-06
    CPU time for cycle= 8      0.05 sec, wall time      0.01 sec
diis-norm(errvec)=1.44965e-07
diis-c [-4.82869263e-16  9.56085586e-08  4.05882515e-06 -5.22439030e-05
  2.80897734e-04 -1.52958672e-03  1.38104700e-02 -1.26375075e-01
  1.11386138e+00]
alpha HOMO (B3u) = -1.32854143469394  LUMO (Ag) = -0.118052869023536
alpha irrep_nelec = [2, 0, 0, 0, 1, 1, 1]
beta  irrep_nelec = [2, 0, 0, 0, 0, 0, 0]
alpha-Ag nocc = 2  HOMO = -2.07378485978784  LUMO = -0.118052869023536
   mo_energy = [-21.41604839  -2.07378486  -0.11805287   0.51644724   0.51644724
   1.11993576   2.8330064    2.8330064   33.44946089]
alpha-B1g nocc = 0
   mo_energy = [0.51644724 2.8330064 ]
alpha-B2g nocc = 0
   mo_energy = [0.51644724 2.8330064 ]
alpha-B3g nocc = 0
   mo_energy = [0.51644724 2.8330064 ]
alpha-B1u nocc = 1  HOMO = -1.32854143469394  LUMO = -0.0657900049869969
   mo_energy = [-1.32854143 -0.06579     0.76732778 38.44257046]
alpha-B2u nocc = 1  HOMO = -1.32854143469394  LUMO = -0.0657900049869965
   mo_energy = [-1.32854143 -0.06579     0.76732778 38.44257046]
alpha-B3u nocc = 1  HOMO = -1.32854143469394  LUMO = -0.0657900049869968
   mo_energy = [-1.32854143 -0.06579     0.76732778 38.44257046]
beta-Ag nocc = 2  HOMO = -1.53574092316581  LUMO = -0.093581069621319
   mo_energy = [-21.28160395  -1.53574092  -0.09358107   0.58585438   0.58585438
   1.25635817   3.05509085   3.05509085  33.5466188 ]
beta-B1g nocc = 0
   mo_energy = [0.58585438 3.05509085]
beta-B2g nocc = 0
   mo_energy = [0.58585438 3.05509085]
beta-B3g nocc = 0
   mo_energy = [0.58585438 3.05509085]
beta-B1u nocc = 0
   mo_energy = [-3.84835955e-01 -2.68908517e-02  9.66479010e-01  3.85378546e+01]
beta-B2u nocc = 0
   mo_energy = [-3.84835955e-01 -2.68908517e-02  9.66479010e-01  3.85378546e+01]
beta-B3u nocc = 0
   mo_energy = [-3.84835955e-01 -2.68908517e-02  9.66479010e-01  3.85378546e+01]
multiplicity <S^2> = 3.7553159  2S+1 = 4.002657
E1 = -98.4148330808062  Ecoul = 24.061015320609272
cycle= 9 E= -74.3538177601969  delta_E=    0  |g|= 2.29e-09  |ddm|= 6.28e-08
    CPU time for cycle= 9      0.05 sec, wall time      0.01 sec
diis-norm(errvec)=3.23772e-09
Linear dependence found in DIIS error vectors.
diis-c [-1.37647155e-15  5.61411058e-01  2.44617876e-06 -3.14133252e-05
  1.70461405e-04 -9.33922701e-04  7.62753396e-03 -5.97638792e-02
  4.91517716e-01]
alpha HOMO (B1u) = -1.32854143424352  LUMO (Ag) = -0.118052868357757
alpha irrep_nelec = [2, 0, 0, 0, 1, 1, 1]
beta  irrep_nelec = [2, 0, 0, 0, 0, 0, 0]
alpha-Ag nocc = 2  HOMO = -2.07378485842046  LUMO = -0.118052868357757
   mo_energy = [-21.41604839  -2.07378486  -0.11805287   0.51644724   0.51644724
   1.11993576   2.8330064    2.8330064   33.44946089]
alpha-B1g nocc = 0
   mo_energy = [0.51644724 2.8330064 ]
alpha-B2g nocc = 0
   mo_energy = [0.51644724 2.8330064 ]
alpha-B3g nocc = 0
   mo_energy = [0.51644724 2.8330064 ]
alpha-B1u nocc = 1  HOMO = -1.32854143424352  LUMO = -0.065790004378005
   mo_energy = [-1.32854143 -0.06579     0.76732778 38.44257047]
alpha-B2u nocc = 1  HOMO = -1.32854143424352  LUMO = -0.0657900043780043
   mo_energy = [-1.32854143 -0.06579     0.76732778 38.44257047]
alpha-B3u nocc = 1  HOMO = -1.32854143424352  LUMO = -0.0657900043780048
   mo_energy = [-1.32854143 -0.06579     0.76732778 38.44257047]
beta-Ag nocc = 2  HOMO = -1.53574091916015  LUMO = -0.0935810694838243
   mo_energy = [-21.28160395  -1.53574092  -0.09358107   0.58585438   0.58585438
   1.25635817   3.05509085   3.05509085  33.54661881]
beta-B1g nocc = 0
   mo_energy = [0.58585438 3.05509085]
beta-B2g nocc = 0
   mo_energy = [0.58585438 3.05509085]
beta-B3g nocc = 0
   mo_energy = [0.58585438 3.05509085]
beta-B1u nocc = 0
   mo_energy = [-3.84835953e-01 -2.68908512e-02  9.66479012e-01  3.85378546e+01]
beta-B2u nocc = 0
   mo_energy = [-3.84835953e-01 -2.68908512e-02  9.66479012e-01  3.85378546e+01]
beta-B3u nocc = 0
   mo_energy = [-3.84835953e-01 -2.68908512e-02  9.66479012e-01  3.85378546e+01]
multiplicity <S^2> = 3.7553159  2S+1 = 4.002657
E1 = -98.41483307581328  Ecoul = 24.061015315616356
cycle= 10 E= -74.3538177601969  delta_E= 1.42e-14  |g|= 2.26e-09  |ddm|= 3.64e-09
    CPU time for cycle= 10      0.05 sec, wall time      0.01 sec
diis-norm(errvec)=3.20121e-09
Linear dependence found in DIIS error vectors.
diis-c [-9.84598363e-16  3.45483400e-01  3.45251543e-01 -1.98105087e-06
  1.48510248e-05 -8.26309530e-05  1.00965358e-03 -1.80019112e-02
  3.26327076e-01]
alpha HOMO (B2u) = -1.32854143300375  LUMO (Ag) = -0.118052868520063
alpha irrep_nelec = [2, 0, 0, 0, 1, 1, 1]
beta  irrep_nelec = [2, 0, 0, 0, 0, 0, 0]
alpha-Ag nocc = 2  HOMO = -2.07378485752271  LUMO = -0.118052868520063
   mo_energy = [-21.41604838  -2.07378486  -0.11805287   0.51644724   0.51644724
   1.11993576   2.83300641   2.83300641  33.44946089]
alpha-B1g nocc = 0
   mo_energy = [0.51644724 2.83300641]
alpha-B2g nocc = 0
   mo_energy = [0.51644724 2.83300641]
alpha-B3g nocc = 0
   mo_energy = [0.51644724 2.83300641]
alpha-B1u nocc = 1  HOMO = -1.32854143300376  LUMO = -0.0657900045983768
   mo_energy = [-1.32854143 -0.06579     0.76732778 38.44257047]
alpha-B2u nocc = 1  HOMO = -1.32854143300375  LUMO = -0.0657900045983763
   mo_energy = [-1.32854143 -0.06579     0.76732778 38.44257047]
alpha-B3u nocc = 1  HOMO = -1.32854143300376  LUMO = -0.0657900045983768
   mo_energy = [-1.32854143 -0.06579     0.76732778 38.44257047]
beta-Ag nocc = 2  HOMO = -1.53574091742439  LUMO = -0.0935810697064002
   mo_energy = [-21.28160394  -1.53574092  -0.09358107   0.58585438   0.58585438
   1.25635817   3.05509085   3.05509085  33.54661881]
beta-B1g nocc = 0
   mo_energy = [0.58585438 3.05509085]
beta-B2g nocc = 0
   mo_energy = [0.58585438 3.05509085]
beta-B3g nocc = 0
   mo_energy = [0.58585438 3.05509085]
beta-B1u nocc = 0
   mo_energy = [-3.84835952e-01 -2.68908511e-02  9.66479013e-01  3.85378546e+01]
beta-B2u nocc = 0
   mo_energy = [-3.84835952e-01 -2.68908511e-02  9.66479013e-01  3.85378546e+01]
beta-B3u nocc = 0
   mo_energy = [-3.84835952e-01 -2.68908511e-02  9.66479013e-01  3.85378546e+01]
multiplicity <S^2> = 3.7553159  2S+1 = 4.002657
E1 = -98.414833077969  Ecoul = 24.06101531777201
cycle= 11 E= -74.353817760197  delta_E= -7.11e-14  |g|= 2.7e-09  |ddm|= 1.84e-09
    CPU time for cycle= 11      0.06 sec, wall time      0.01 sec
diis-norm(errvec)=3.82129e-09
Linear dependence found in DIIS error vectors.
diis-c [-6.54109501e-17  3.32211625e-01  3.35711862e-01  3.32046864e-01
 -7.58748461e-08 -1.54008102e-06  6.01197217e-05 -6.35969123e-04
  6.07115399e-04]
alpha HOMO (B3u) = -1.32854143636273  LUMO (Ag) = -0.118052868825359
alpha irrep_nelec = [2, 0, 0, 0, 1, 1, 1]
beta  irrep_nelec = [2, 0, 0, 0, 0, 0, 0]
alpha-Ag nocc = 2  HOMO = -2.07378486117391  LUMO = -0.118052868825359
   mo_energy = [-21.41604839  -2.07378486  -0.11805287   0.51644724   0.51644724
   1.11993576   2.8330064    2.8330064   33.44946088]
alpha-B1g nocc = 0
   mo_energy = [0.51644724 2.8330064 ]
alpha-B2g nocc = 0
   mo_energy = [0.51644724 2.8330064 ]
alpha-B3g nocc = 0
   mo_energy = [0.51644724 2.8330064 ]
alpha-B1u nocc = 1  HOMO = -1.32854143636273  LUMO = -0.0657900047444454
   mo_energy = [-1.32854144 -0.06579     0.76732778 38.44257046]
alpha-B2u nocc = 1  HOMO = -1.32854143636273  LUMO = -0.065790004744445
   mo_energy = [-1.32854144 -0.06579     0.76732778 38.44257046]
alpha-B3u nocc = 1  HOMO = -1.32854143636273  LUMO = -0.0657900047444454
   mo_energy = [-1.32854144 -0.06579     0.76732778 38.44257046]
beta-Ag nocc = 2  HOMO = -1.53574092049016  LUMO = -0.0935810699993905
   mo_energy = [-21.28160395  -1.53574092  -0.09358107   0.58585438   0.58585438
   1.25635816   3.05509085   3.05509085  33.5466188 ]
beta-B1g nocc = 0
   mo_energy = [0.58585438 3.05509085]
beta-B2g nocc = 0
   mo_energy = [0.58585438 3.05509085]
beta-B3g nocc = 0
   mo_energy = [0.58585438 3.05509085]
beta-B1u nocc = 0
   mo_energy = [-3.84835955e-01 -2.68908517e-02  9.66479009e-01  3.85378546e+01]
beta-B2u nocc = 0
   mo_energy = [-3.84835955e-01 -2.68908517e-02  9.66479009e-01  3.85378546e+01]
beta-B3u nocc = 0
   mo_energy = [-3.84835955e-01 -2.68908517e-02  9.66479009e-01  3.85378546e+01]
multiplicity <S^2> = 3.7553159  2S+1 = 4.002657
E1 = -98.41483308079066  Ecoul = 24.061015320593665
cycle= 12 E= -74.353817760197  delta_E=    0  |g|= 1.89e-10  |ddm|= 2.23e-09
    CPU time for cycle= 12      0.05 sec, wall time      0.01 sec
diis-norm(errvec)=2.67488e-10
Linear dependence found in DIIS error vectors.
diis-c [-9.11706415e-19  2.49991349e-01  2.52021837e-01  2.48935268e-01
  2.50109536e-01 -1.91567711e-06  5.48775544e-05 -4.89025203e-04
 -6.21926585e-04]
alpha HOMO (B1u) = -1.32854143639544  LUMO (Ag) = -0.118052868834402
alpha irrep_nelec = [2, 0, 0, 0, 1, 1, 1]
beta  irrep_nelec = [2, 0, 0, 0, 0, 0, 0]
alpha-Ag nocc = 2  HOMO = -2.07378486121912  LUMO = -0.118052868834402
   mo_energy = [-21.4160484   -2.07378486  -0.11805287   0.51644724   0.51644724
   1.11993576   2.8330064    2.8330064   33.44946088]
alpha-B1g nocc = 0
   mo_energy = [0.51644724 2.8330064 ]
alpha-B2g nocc = 0
   mo_energy = [0.51644724 2.8330064 ]
alpha-B3g nocc = 0
   mo_energy = [0.51644724 2.8330064 ]
alpha-B1u nocc = 1  HOMO = -1.32854143639544  LUMO = -0.0657900047465161
   mo_energy = [-1.32854144 -0.06579     0.76732778 38.44257046]
alpha-B2u nocc = 1  HOMO = -1.32854143639544  LUMO = -0.0657900047465155
   mo_energy = [-1.32854144 -0.06579     0.76732778 38.44257046]
alpha-B3u nocc = 1  HOMO = -1.32854143639544  LUMO = -0.0657900047465161
   mo_energy = [-1.32854144 -0.06579     0.76732778 38.44257046]
beta-Ag nocc = 2  HOMO = -1.53574092057667  LUMO = -0.0935810700076732
   mo_energy = [-21.28160395  -1.53574092  -0.09358107   0.58585438   0.58585438
   1.25635816   3.05509085   3.05509085  33.5466188 ]
beta-B1g nocc = 0
   mo_energy = [0.58585438 3.05509085]
beta-B2g nocc = 0
   mo_energy = [0.58585438 3.05509085]
beta-B3g nocc = 0
   mo_energy = [0.58585438 3.05509085]
beta-B1u nocc = 0
   mo_energy = [-3.84835955e-01 -2.68908517e-02  9.66479009e-01  3.85378546e+01]
beta-B2u nocc = 0
   mo_energy = [-3.84835955e-01 -2.68908517e-02  9.66479009e-01  3.85378546e+01]
beta-B3u nocc = 0
   mo_energy = [-3.84835955e-01 -2.68908517e-02  9.66479009e-01  3.85378546e+01]
multiplicity <S^2> = 3.7553159  2S+1 = 4.002657
E1 = -98.41483308073944  Ecoul = 24.061015320542438
cycle= 13 E= -74.353817760197  delta_E= -1.42e-14  |g|= 1.76e-10  |ddm|= 2.65e-10
    CPU time for cycle= 13      0.06 sec, wall time      0.01 sec
diis-norm(errvec)=2.49447e-10
Linear dependence found in DIIS error vectors.
diis-c [-9.19813357e-16  1.99979392e-01  2.01496773e-01  1.99025512e-01
  1.99705455e-01  1.99744467e-01  2.16737104e-05 -3.80742937e-04
  4.07469854e-04]
alpha HOMO (B3u) = -1.3285414363821  LUMO (Ag) = -0.1180528688306
alpha irrep_nelec = [2, 0, 0, 0, 1, 1, 1]
beta  irrep_nelec = [2, 0, 0, 0, 0, 0, 0]
alpha-Ag nocc = 2  HOMO = -2.0737848612161  LUMO = -0.1180528688306
   mo_energy = [-21.4160484   -2.07378486  -0.11805287   0.51644724   0.51644724
   1.11993576   2.8330064    2.8330064   33.44946088]
alpha-B1g nocc = 0
   mo_energy = [0.51644724 2.8330064 ]
alpha-B2g nocc = 0
   mo_energy = [0.51644724 2.8330064 ]
alpha-B3g nocc = 0
   mo_energy = [0.51644724 2.8330064 ]
alpha-B1u nocc = 1  HOMO = -1.3285414363821  LUMO = -0.0657900047442148
   mo_energy = [-1.32854144 -0.06579     0.76732778 38.44257046]
alpha-B2u nocc = 1  HOMO = -1.3285414363821  LUMO = -0.0657900047442146
   mo_energy = [-1.32854144 -0.06579     0.76732778 38.44257046]
alpha-B3u nocc = 1  HOMO = -1.3285414363821  LUMO = -0.065790004744215
   mo_energy = [-1.32854144 -0.06579     0.76732778 38.44257046]
beta-Ag nocc = 2  HOMO = -1.53574092064876  LUMO = -0.0935810700136857
   mo_energy = [-21.28160395  -1.53574092  -0.09358107   0.58585438   0.58585438
   1.25635816   3.05509085   3.05509085  33.5466188 ]
beta-B1g nocc = 0
   mo_energy = [0.58585438 3.05509085]
beta-B2g nocc = 0
   mo_energy = [0.58585438 3.05509085]
beta-B3g nocc = 0
   mo_energy = [0.58585438 3.05509085]
beta-B1u nocc = 0
   mo_energy = [-3.84835955e-01 -2.68908517e-02  9.66479009e-01  3.85378546e+01]
beta-B2u nocc = 0
   mo_energy = [-3.84835955e-01 -2.68908517e-02  9.66479009e-01  3.85378546e+01]
beta-B3u nocc = 0
   mo_energy = [-3.84835955e-01 -2.68908517e-02  9.66479009e-01  3.85378546e+01]
multiplicity <S^2> = 3.7553159  2S+1 = 4.002657
E1 = -98.41483308070649  Ecoul = 24.06101532050954
cycle= 14 E= -74.3538177601969  delta_E= 5.68e-14  |g|= 2.57e-10  |ddm|= 3.14e-10
    CPU time for cycle= 14      0.06 sec, wall time      0.01 sec
diis-norm(errvec)=3.62864e-10
Linear dependence found in DIIS error vectors.
diis-c [-8.44732283e-17  1.67491396e-01  1.68718368e-01  1.66571170e-01
  1.67259164e-01  1.67293205e-01  1.67355879e-01 -3.20642066e-05
 -4.65711665e-03]
alpha HOMO (B3u) = -1.32854143651988  LUMO (Ag) = -0.118052868849882
alpha irrep_nelec = [2, 0, 0, 0, 1, 1, 1]
beta  irrep_nelec = [2, 0, 0, 0, 0, 0, 0]
alpha-Ag nocc = 2  HOMO = -2.07378486138454  LUMO = -0.118052868849882
   mo_energy = [-21.4160484   -2.07378486  -0.11805287   0.51644724   0.51644724
   1.11993576   2.8330064    2.8330064   33.44946088]
alpha-B1g nocc = 0
   mo_energy = [0.51644724 2.8330064 ]
alpha-B2g nocc = 0
   mo_energy = [0.51644724 2.8330064 ]
alpha-B3g nocc = 0
   mo_energy = [0.51644724 2.8330064 ]
alpha-B1u nocc = 1  HOMO = -1.32854143651988  LUMO = -0.0657900047502824
   mo_energy = [-1.32854144 -0.06579     0.76732778 38.44257046]
alpha-B2u nocc = 1  HOMO = -1.32854143651988  LUMO = -0.065790004750282
   mo_energy = [-1.32854144 -0.06579     0.76732778 38.44257046]
alpha-B3u nocc = 1  HOMO = -1.32854143651988  LUMO = -0.0657900047502823
   mo_energy = [-1.32854144 -0.06579     0.76732778 38.44257046]
beta-Ag nocc = 2  HOMO = -1.53574092080947  LUMO = -0.09358107002527
   mo_energy = [-21.28160395  -1.53574092  -0.09358107   0.58585438   0.58585438
   1.25635816   3.05509085   3.05509085  33.5466188 ]
beta-B1g nocc = 0
   mo_energy = [0.58585438 3.05509085]
beta-B2g nocc = 0
   mo_energy = [0.58585438 3.05509085]
beta-B3g nocc = 0
   mo_energy = [0.58585438 3.05509085]
beta-B1u nocc = 0
   mo_energy = [-3.84835956e-01 -2.68908517e-02  9.66479009e-01  3.85378546e+01]
beta-B2u nocc = 0
   mo_energy = [-3.84835956e-01 -2.68908517e-02  9.66479009e-01  3.85378546e+01]
beta-B3u nocc = 0
   mo_energy = [-3.84835956e-01 -2.68908517e-02  9.66479009e-01  3.85378546e+01]
multiplicity <S^2> = 3.7553159  2S+1 = 4.002657
E1 = -98.41483308077281  Ecoul = 24.061015320575816
cycle= 15 E= -74.353817760197  delta_E= -4.26e-14  |g|= 2.8e-10  |ddm|= 1.57e-10
    CPU time for cycle= 15      0.05 sec, wall time      0.01 sec
diis-norm(errvec)=3.9644e-10
Linear dependence found in DIIS error vectors.
diis-c [2.54562284e-16 1.42944650e-01 1.42980018e-01 1.41430892e-01
 1.42568894e-01 1.42594408e-01 1.42647902e-01 1.42659095e-01
 2.17414023e-03]
alpha HOMO (B3u) = -1.32854143647457  LUMO (Ag) = -0.118052868845839
alpha irrep_nelec = [2, 0, 0, 0, 1, 1, 1]
beta  irrep_nelec = [2, 0, 0, 0, 0, 0, 0]
alpha-Ag nocc = 2  HOMO = -2.0737848612973  LUMO = -0.118052868845839
   mo_energy = [-21.4160484   -2.07378486  -0.11805287   0.51644724   0.51644724
   1.11993576   2.8330064    2.8330064   33.44946088]
alpha-B1g nocc = 0
   mo_energy = [0.51644724 2.8330064 ]
alpha-B2g nocc = 0
   mo_energy = [0.51644724 2.8330064 ]
alpha-B3g nocc = 0
   mo_energy = [0.51644724 2.8330064 ]
alpha-B1u nocc = 1  HOMO = -1.32854143647458  LUMO = -0.0657900047508705
   mo_energy = [-1.32854144 -0.06579     0.76732778 38.44257046]
alpha-B2u nocc = 1  HOMO = -1.32854143647458  LUMO = -0.06579000475087
   mo_energy = [-1.32854144 -0.06579     0.76732778 38.44257046]
alpha-B3u nocc = 1  HOMO = -1.32854143647457  LUMO = -0.0657900047508704
   mo_energy = [-1.32854144 -0.06579     0.76732778 38.44257046]
beta-Ag nocc = 2  HOMO = -1.53574092066929  LUMO = -0.0935810700154196
   mo_energy = [-21.28160395  -1.53574092  -0.09358107   0.58585438   0.58585438
   1.25635816   3.05509085   3.05509085  33.5466188 ]
beta-B1g nocc = 0
   mo_energy = [0.58585438 3.05509085]
beta-B2g nocc = 0
   mo_energy = [0.58585438 3.05509085]
beta-B3g nocc = 0
   mo_energy = [0.58585438 3.05509085]
beta-B1u nocc = 0
   mo_energy = [-3.84835956e-01 -2.68908517e-02  9.66479009e-01  3.85378546e+01]
beta-B2u nocc = 0
   mo_energy = [-3.84835956e-01 -2.68908517e-02  9.66479009e-01  3.85378546e+01]
beta-B3u nocc = 0
   mo_energy = [-3.84835956e-01 -2.68908517e-02  9.66479009e-01  3.85378546e+01]
multiplicity <S^2> = 3.7553159  2S+1 = 4.002657
E1 = -98.4148330807303  Ecoul = 24.061015320533322
cycle= 16 E= -74.353817760197  delta_E=    0  |g|= 1.85e-10  |ddm|= 3.28e-10
    CPU time for cycle= 16      0.05 sec, wall time      0.01 sec
diis-norm(errvec)=2.61706e-10
Linear dependence found in DIIS error vectors.
diis-c [-2.89052492e-16  1.25000000e-01  1.25000000e-01  1.25000000e-01
  1.25000000e-01  1.25000000e-01  1.25000000e-01  1.25000000e-01
  1.25000000e-01]
alpha HOMO (B3u) = -1.32854143648021  LUMO (Ag) = -0.118052868845484
alpha irrep_nelec = [2, 0, 0, 0, 1, 1, 1]
beta  irrep_nelec = [2, 0, 0, 0, 0, 0, 0]
alpha-Ag nocc = 2  HOMO = -2.07378486131559  LUMO = -0.118052868845484
   mo_energy = [-21.4160484   -2.07378486  -0.11805287   0.51644724   0.51644724
   1.11993576   2.8330064    2.8330064   33.44946088]
alpha-B1g nocc = 0
   mo_energy = [0.51644724 2.8330064 ]
alpha-B2g nocc = 0
   mo_energy = [0.51644724 2.8330064 ]
alpha-B3g nocc = 0
   mo_energy = [0.51644724 2.8330064 ]
alpha-B1u nocc = 1  HOMO = -1.32854143648022  LUMO = -0.0657900047502138
   mo_energy = [-1.32854144 -0.06579     0.76732778 38.44257046]
alpha-B2u nocc = 1  HOMO = -1.32854143648022  LUMO = -0.0657900047502133
   mo_energy = [-1.32854144 -0.06579     0.76732778 38.44257046]
alpha-B3u nocc = 1  HOMO = -1.32854143648021  LUMO = -0.0657900047502137
   mo_energy = [-1.32854144 -0.06579     0.76732778 38.44257046]
beta-Ag nocc = 2  HOMO = -1.53574092068615  LUMO = -0.093581070016619
   mo_energy = [-21.28160395  -1.53574092  -0.09358107   0.58585438   0.58585438
   1.25635816   3.05509085   3.05509085  33.5466188 ]
beta-B1g nocc = 0
   mo_energy = [0.58585438 3.05509085]
beta-B2g nocc = 0
   mo_energy = [0.58585438 3.05509085]
beta-B3g nocc = 0
   mo_energy = [0.58585438 3.05509085]
beta-B1u nocc = 0
   mo_energy = [-3.84835956e-01 -2.68908517e-02  9.66479009e-01  3.85378546e+01]
beta-B2u nocc = 0
   mo_energy = [-3.84835956e-01 -2.68908517e-02  9.66479009e-01  3.85378546e+01]
beta-B3u nocc = 0
   mo_energy = [-3.84835956e-01 -2.68908517e-02  9.66479009e-01  3.85378546e+01]
multiplicity <S^2> = 3.7553159  2S+1 = 4.002657
E1 = -98.41483308074149  Ecoul = 24.061015320544477
cycle= 17 E= -74.353817760197  delta_E= -2.84e-14  |g|= 1.84e-10  |ddm|= 5.51e-11
    CPU time for cycle= 17      0.05 sec, wall time      0.01 sec
diis-norm(errvec)=2.60262e-10
Linear dependence found in DIIS error vectors.
diis-c [-2.89052492e-16  1.25000000e-01  1.25000000e-01  1.25000000e-01
  1.25000000e-01  1.25000000e-01  1.25000000e-01  1.25000000e-01
  1.25000000e-01]
alpha HOMO (B3u) = -1.32854143650114  LUMO (Ag) = -0.118052868844814
alpha irrep_nelec = [2, 0, 0, 0, 1, 1, 1]
beta  irrep_nelec = [2, 0, 0, 0, 0, 0, 0]
alpha-Ag nocc = 2  HOMO = -2.0737848613348  LUMO = -0.118052868844814
   mo_energy = [-21.4160484   -2.07378486  -0.11805287   0.51644724   0.51644724
   1.11993576   2.8330064    2.8330064   33.44946088]
alpha-B1g nocc = 0
   mo_energy = [0.51644724 2.8330064 ]
alpha-B2g nocc = 0
   mo_energy = [0.51644724 2.8330064 ]
alpha-B3g nocc = 0
   mo_energy = [0.51644724 2.8330064 ]
alpha-B1u nocc = 1  HOMO = -1.32854143650114  LUMO = -0.065790004750814
   mo_energy = [-1.32854144 -0.06579     0.76732778 38.44257046]
alpha-B2u nocc = 1  HOMO = -1.32854143650114  LUMO = -0.0657900047508136
   mo_energy = [-1.32854144 -0.06579     0.76732778 38.44257046]
alpha-B3u nocc = 1  HOMO = -1.32854143650114  LUMO = -0.0657900047508137
   mo_energy = [-1.32854144 -0.06579     0.76732778 38.44257046]
beta-Ag nocc = 2  HOMO = -1.53574092063798  LUMO = -0.0935810700126637
   mo_energy = [-21.28160395  -1.53574092  -0.09358107   0.58585438   0.58585438
   1.25635816   3.05509085   3.05509085  33.5466188 ]
beta-B1g nocc = 0
   mo_energy = [0.58585438 3.05509085]
beta-B2g nocc = 0
   mo_energy = [0.58585438 3.05509085]
beta-B3g nocc = 0
   mo_energy = [0.58585438 3.05509085]
beta-B1u nocc = 0
   mo_energy = [-3.84835956e-01 -2.68908517e-02  9.66479009e-01  3.85378546e+01]
beta-B2u nocc = 0
   mo_energy = [-3.84835956e-01 -2.68908517e-02  9.66479009e-01  3.85378546e+01]
beta-B3u nocc = 0
   mo_energy = [-3.84835956e-01 -2.68908517e-02  9.66479009e-01  3.85378546e+01]
multiplicity <S^2> = 3.7553159  2S+1 = 4.002657
E1 = -98.41483308078259  Ecoul = 24.061015320585554
cycle= 18 E= -74.353817760197  delta_E= -1.42e-14  |g|= 1.14e-10  |ddm|= 1.82e-10
    CPU time for cycle= 18      0.06 sec, wall time      0.02 sec
diis-norm(errvec)=1.60564e-10
Linear dependence found in DIIS error vectors.
diis-c [-2.89052492e-16  1.25000000e-01  1.25000000e-01  1.25000000e-01
  1.25000000e-01  1.25000000e-01  1.25000000e-01  1.25000000e-01
  1.25000000e-01]
alpha HOMO (B3u) = -1.32854143645473  LUMO (Ag) = -0.118052868838875
alpha irrep_nelec = [2, 0, 0, 0, 1, 1, 1]
beta  irrep_nelec = [2, 0, 0, 0, 0, 0, 0]
alpha-Ag nocc = 2  HOMO = -2.07378486129049  LUMO = -0.118052868838875
   mo_energy = [-21.4160484   -2.07378486  -0.11805287   0.51644724   0.51644724
   1.11993576   2.8330064    2.8330064   33.44946088]
alpha-B1g nocc = 0
   mo_energy = [0.51644724 2.8330064 ]
alpha-B2g nocc = 0
   mo_energy = [0.51644724 2.8330064 ]
alpha-B3g nocc = 0
   mo_energy = [0.51644724 2.8330064 ]
alpha-B1u nocc = 1  HOMO = -1.32854143645473  LUMO = -0.0657900047485891
   mo_energy = [-1.32854144 -0.06579     0.76732778 38.44257046]
alpha-B2u nocc = 1  HOMO = -1.32854143645473  LUMO = -0.0657900047485887
   mo_energy = [-1.32854144 -0.06579     0.76732778 38.44257046]
alpha-B3u nocc = 1  HOMO = -1.32854143645473  LUMO = -0.0657900047485889
   mo_energy = [-1.32854144 -0.06579     0.76732778 38.44257046]
beta-Ag nocc = 2  HOMO = -1.53574092056008  LUMO = -0.0935810700071452
   mo_energy = [-21.28160395  -1.53574092  -0.09358107   0.58585438   0.58585438
   1.25635816   3.05509085   3.05509085  33.5466188 ]
beta-B1g nocc = 0
   mo_energy = [0.58585438 3.05509085]
beta-B2g nocc = 0
   mo_energy = [0.58585438 3.05509085]
beta-B3g nocc = 0
   mo_energy = [0.58585438 3.05509085]
beta-B1u nocc = 0
   mo_energy = [-3.84835955e-01 -2.68908517e-02  9.66479009e-01  3.85378546e+01]
beta-B2u nocc = 0
   mo_energy = [-3.84835955e-01 -2.68908517e-02  9.66479009e-01  3.85378546e+01]
beta-B3u nocc = 0
   mo_energy = [-3.84835955e-01 -2.68908517e-02  9.66479009e-01  3.85378546e+01]
multiplicity <S^2> = 3.7553159  2S+1 = 4.002657
E1 = -98.41483308076529  Ecoul = 24.061015320568302
cycle= 19 E= -74.353817760197  delta_E= 4.26e-14  |g|= 6.71e-11  |ddm|= 1.1e-10
    CPU time for cycle= 19      0.06 sec, wall time      0.01 sec
diis-norm(errvec)=9.48976e-11
Linear dependence found in DIIS error vectors.
diis-c [-2.89052492e-16  1.25000000e-01  1.25000000e-01  1.25000000e-01
  1.25000000e-01  1.25000000e-01  1.25000000e-01  1.25000000e-01
  1.25000000e-01]
alpha HOMO (B3u) = -1.32854143642391  LUMO (Ag) = -0.118052868835555
alpha irrep_nelec = [2, 0, 0, 0, 1, 1, 1]
beta  irrep_nelec = [2, 0, 0, 0, 0, 0, 0]
alpha-Ag nocc = 2  HOMO = -2.07378486126419  LUMO = -0.118052868835555
   mo_energy = [-21.41604839  -2.07378486  -0.11805287   0.51644724   0.51644724
   1.11993576   2.8330064    2.8330064   33.44946088]
alpha-B1g nocc = 0
   mo_energy = [0.51644724 2.8330064 ]
alpha-B2g nocc = 0
   mo_energy = [0.51644724 2.8330064 ]
alpha-B3g nocc = 0
   mo_energy = [0.51644724 2.8330064 ]
alpha-B1u nocc = 1  HOMO = -1.32854143642391  LUMO = -0.0657900047469332
   mo_energy = [-1.32854144 -0.06579     0.76732778 38.44257046]
alpha-B2u nocc = 1  HOMO = -1.32854143642391  LUMO = -0.0657900047469329
   mo_energy = [-1.32854144 -0.06579     0.76732778 38.44257046]
alpha-B3u nocc = 1  HOMO = -1.32854143642391  LUMO = -0.065790004746933
   mo_energy = [-1.32854144 -0.06579     0.76732778 38.44257046]
beta-Ag nocc = 2  HOMO = -1.5357409205308  LUMO = -0.0935810700054751
   mo_energy = [-21.28160395  -1.53574092  -0.09358107   0.58585438   0.58585438
   1.25635816   3.05509085   3.05509085  33.5466188 ]
beta-B1g nocc = 0
   mo_energy = [0.58585438 3.05509085]
beta-B2g nocc = 0
   mo_energy = [0.58585438 3.05509085]
beta-B3g nocc = 0
   mo_energy = [0.58585438 3.05509085]
beta-B1u nocc = 0
   mo_energy = [-3.84835955e-01 -2.68908517e-02  9.66479009e-01  3.85378546e+01]
beta-B2u nocc = 0
   mo_energy = [-3.84835955e-01 -2.68908517e-02  9.66479009e-01  3.85378546e+01]
beta-B3u nocc = 0
   mo_energy = [-3.84835955e-01 -2.68908517e-02  9.66479009e-01  3.85378546e+01]
multiplicity <S^2> = 3.7553159  2S+1 = 4.002657
E1 = -98.41483308073788  Ecoul = 24.061015320540932
cycle= 20 E= -74.3538177601969  delta_E= 4.26e-14  |g|= 5.55e-11  |ddm|= 1.7e-11
    CPU time for cycle= 20      0.05 sec, wall time      0.01 sec
diis-norm(errvec)=7.85321e-11
Linear dependence found in DIIS error vectors.
diis-c [-2.89052492e-16  1.25000000e-01  1.25000000e-01  1.25000000e-01
  1.25000000e-01  1.25000000e-01  1.25000000e-01  1.25000000e-01
  1.25000000e-01]
alpha HOMO (B3u) = -1.32854143642489  LUMO (Ag) = -0.118052868835719
alpha irrep_nelec = [2, 0, 0, 0, 1, 1, 1]
beta  irrep_nelec = [2, 0, 0, 0, 0, 0, 0]
alpha-Ag nocc = 2  HOMO = -2.07378486126589  LUMO = -0.118052868835719
   mo_energy = [-21.41604839  -2.07378486  -0.11805287   0.51644724   0.51644724
   1.11993576   2.8330064    2.8330064   33.44946088]
alpha-B1g nocc = 0
   mo_energy = [0.51644724 2.8330064 ]
alpha-B2g nocc = 0
   mo_energy = [0.51644724 2.8330064 ]
alpha-B3g nocc = 0
   mo_energy = [0.51644724 2.8330064 ]
alpha-B1u nocc = 1  HOMO = -1.32854143642489  LUMO = -0.0657900047469709
   mo_energy = [-1.32854144 -0.06579     0.76732778 38.44257046]
alpha-B2u nocc = 1  HOMO = -1.32854143642489  LUMO = -0.0657900047469708
   mo_energy = [-1.32854144 -0.06579     0.76732778 38.44257046]
alpha-B3u nocc = 1  HOMO = -1.32854143642489  LUMO = -0.0657900047469706
   mo_energy = [-1.32854144 -0.06579     0.76732778 38.44257046]
beta-Ag nocc = 2  HOMO = -1.5357409205307  LUMO = -0.0935810700055224
   mo_energy = [-21.28160395  -1.53574092  -0.09358107   0.58585438   0.58585438
   1.25635816   3.05509085   3.05509085  33.5466188 ]
beta-B1g nocc = 0
   mo_energy = [0.58585438 3.05509085]
beta-B2g nocc = 0
   mo_energy = [0.58585438 3.05509085]
beta-B3g nocc = 0
   mo_energy = [0.58585438 3.05509085]
beta-B1u nocc = 0
   mo_energy = [-3.84835955e-01 -2.68908517e-02  9.66479009e-01  3.85378546e+01]
beta-B2u nocc = 0
   mo_energy = [-3.84835955e-01 -2.68908517e-02  9.66479009e-01  3.85378546e+01]
beta-B3u nocc = 0
   mo_energy = [-3.84835955e-01 -2.68908517e-02  9.66479009e-01  3.85378546e+01]
multiplicity <S^2> = 3.7553159  2S+1 = 4.002657
E1 = -98.41483308073745  Ecoul = 24.061015320540484
cycle= 21 E= -74.353817760197  delta_E= -1.42e-14  |g|= 5.4e-11  |ddm|= 4.25e-12
    CPU time for cycle= 21      0.05 sec, wall time      0.01 sec
diis-norm(errvec)=7.63993e-11
Linear dependence found in DIIS error vectors.
diis-c [-2.89052492e-16  1.25000000e-01  1.25000000e-01  1.25000000e-01
  1.25000000e-01  1.25000000e-01  1.25000000e-01  1.25000000e-01
  1.25000000e-01]
alpha HOMO (B2u) = -1.32854143642588  LUMO (Ag) = -0.118052868835697
alpha irrep_nelec = [2, 0, 0, 0, 1, 1, 1]
beta  irrep_nelec = [2, 0, 0, 0, 0, 0, 0]
alpha-Ag nocc = 2  HOMO = -2.0737848612673  LUMO = -0.118052868835697
   mo_energy = [-21.41604839  -2.07378486  -0.11805287   0.51644724   0.51644724
   1.11993576   2.8330064    2.8330064   33.44946088]
alpha-B1g nocc = 0
   mo_energy = [0.51644724 2.8330064 ]
alpha-B2g nocc = 0
   mo_energy = [0.51644724 2.8330064 ]
alpha-B3g nocc = 0
   mo_energy = [0.51644724 2.8330064 ]
alpha-B1u nocc = 1  HOMO = -1.32854143642588  LUMO = -0.0657900047469876
   mo_energy = [-1.32854144 -0.06579     0.76732778 38.44257046]
alpha-B2u nocc = 1  HOMO = -1.32854143642588  LUMO = -0.0657900047469874
   mo_energy = [-1.32854144 -0.06579     0.76732778 38.44257046]
alpha-B3u nocc = 1  HOMO = -1.32854143642588  LUMO = -0.0657900047469874
   mo_energy = [-1.32854144 -0.06579     0.76732778 38.44257046]
beta-Ag nocc = 2  HOMO = -1.5357409205281  LUMO = -0.0935810700053242
   mo_energy = [-21.28160395  -1.53574092  -0.09358107   0.58585438   0.58585438
   1.25635816   3.05509085   3.05509085  33.5466188 ]
beta-B1g nocc = 0
   mo_energy = [0.58585438 3.05509085]
beta-B2g nocc = 0
   mo_energy = [0.58585438 3.05509085]
beta-B3g nocc = 0
   mo_energy = [0.58585438 3.05509085]
beta-B1u nocc = 0
   mo_energy = [-3.84835955e-01 -2.68908517e-02  9.66479009e-01  3.85378546e+01]
beta-B2u nocc = 0
   mo_energy = [-3.84835955e-01 -2.68908517e-02  9.66479009e-01  3.85378546e+01]
beta-B3u nocc = 0
   mo_energy = [-3.84835955e-01 -2.68908517e-02  9.66479009e-01  3.85378546e+01]
multiplicity <S^2> = 3.7553159  2S+1 = 4.002657
E1 = -98.41483308073944  Ecoul = 24.061015320542474
cycle= 22 E= -74.353817760197  delta_E=    0  |g|= 5e-11  |ddm|= 8.38e-12
    CPU time for cycle= 22      0.05 sec, wall time      0.01 sec
diis-norm(errvec)=7.07211e-11
Linear dependence found in DIIS error vectors.
diis-c [-2.89052492e-16  1.25000000e-01  1.25000000e-01  1.25000000e-01
  1.25000000e-01  1.25000000e-01  1.25000000e-01  1.25000000e-01
  1.25000000e-01]
alpha HOMO (B2u) = -1.32854143642765  LUMO (Ag) = -0.11805286883573
alpha irrep_nelec = [2, 0, 0, 0, 1, 1, 1]
beta  irrep_nelec = [2, 0, 0, 0, 0, 0, 0]
alpha-Ag nocc = 2  HOMO = -2.07378486126928  LUMO = -0.11805286883573
   mo_energy = [-21.41604839  -2.07378486  -0.11805287   0.51644724   0.51644724
   1.11993576   2.8330064    2.8330064   33.44946088]
alpha-B1g nocc = 0
   mo_energy = [0.51644724 2.8330064 ]
alpha-B2g nocc = 0
   mo_energy = [0.51644724 2.8330064 ]
alpha-B3g nocc = 0
   mo_energy = [0.51644724 2.8330064 ]
alpha-B1u nocc = 1  HOMO = -1.32854143642765  LUMO = -0.0657900047470691
   mo_energy = [-1.32854144 -0.06579     0.76732778 38.44257046]
alpha-B2u nocc = 1  HOMO = -1.32854143642765  LUMO = -0.065790004747069
   mo_energy = [-1.32854144 -0.06579     0.76732778 38.44257046]
alpha-B3u nocc = 1  HOMO = -1.32854143642765  LUMO = -0.0657900047470692
   mo_energy = [-1.32854144 -0.06579     0.76732778 38.44257046]
beta-Ag nocc = 2  HOMO = -1.53574092052226  LUMO = -0.093581070004837
   mo_energy = [-21.28160395  -1.53574092  -0.09358107   0.58585438   0.58585438
   1.25635816   3.05509085   3.05509085  33.5466188 ]
beta-B1g nocc = 0
   mo_energy = [0.58585438 3.05509085]
beta-B2g nocc = 0
   mo_energy = [0.58585438 3.05509085]
beta-B3g nocc = 0
   mo_energy = [0.58585438 3.05509085]
beta-B1u nocc = 0
   mo_energy = [-3.84835955e-01 -2.68908517e-02  9.66479009e-01  3.85378546e+01]
beta-B2u nocc = 0
   mo_energy = [-3.84835955e-01 -2.68908517e-02  9.66479009e-01  3.85378546e+01]
beta-B3u nocc = 0
   mo_energy = [-3.84835955e-01 -2.68908517e-02  9.66479009e-01  3.85378546e+01]
multiplicity <S^2> = 3.7553159  2S+1 = 4.002657
E1 = -98.4148330807439  Ecoul = 24.061015320546932
cycle= 23 E= -74.353817760197  delta_E= -1.42e-14  |g|= 4.13e-11  |ddm|= 2.28e-11
    CPU time for cycle= 23      0.05 sec, wall time      0.01 sec
diis-norm(errvec)=5.84724e-11
Linear dependence found in DIIS error vectors.
diis-c [-2.89052492e-16  1.25000000e-01  1.25000000e-01  1.25000000e-01
  1.25000000e-01  1.25000000e-01  1.25000000e-01  1.25000000e-01
  1.25000000e-01]
alpha HOMO (B3u) = -1.32854143643049  LUMO (Ag) = -0.118052868835645
alpha irrep_nelec = [2, 0, 0, 0, 1, 1, 1]
beta  irrep_nelec = [2, 0, 0, 0, 0, 0, 0]
alpha-Ag nocc = 2  HOMO = -2.07378486127156  LUMO = -0.118052868835645
   mo_energy = [-21.41604839  -2.07378486  -0.11805287   0.51644724   0.51644724
   1.11993576   2.8330064    2.8330064   33.44946088]
alpha-B1g nocc = 0
   mo_energy = [0.51644724 2.8330064 ]
alpha-B2g nocc = 0
   mo_energy = [0.51644724 2.8330064 ]
alpha-B3g nocc = 0
   mo_energy = [0.51644724 2.8330064 ]
alpha-B1u nocc = 1  HOMO = -1.32854143643049  LUMO = -0.0657900047471705
   mo_energy = [-1.32854144 -0.06579     0.76732778 38.44257046]
alpha-B2u nocc = 1  HOMO = -1.32854143643049  LUMO = -0.0657900047471705
   mo_energy = [-1.32854144 -0.06579     0.76732778 38.44257046]
alpha-B3u nocc = 1  HOMO = -1.32854143643049  LUMO = -0.0657900047471706
   mo_energy = [-1.32854144 -0.06579     0.76732778 38.44257046]
beta-Ag nocc = 2  HOMO = -1.53574092051591  LUMO = -0.0935810700042664
   mo_energy = [-21.28160395  -1.53574092  -0.09358107   0.58585438   0.58585438
   1.25635816   3.05509085   3.05509085  33.5466188 ]
beta-B1g nocc = 0
   mo_energy = [0.58585438 3.05509085]
beta-B2g nocc = 0
   mo_energy = [0.58585438 3.05509085]
beta-B3g nocc = 0
   mo_energy = [0.58585438 3.05509085]
beta-B1u nocc = 0
   mo_energy = [-3.84835955e-01 -2.68908517e-02  9.66479009e-01  3.85378546e+01]
beta-B2u nocc = 0
   mo_energy = [-3.84835955e-01 -2.68908517e-02  9.66479009e-01  3.85378546e+01]
beta-B3u nocc = 0
   mo_energy = [-3.84835955e-01 -2.68908517e-02  9.66479009e-01  3.85378546e+01]
multiplicity <S^2> = 3.7553159  2S+1 = 4.002657
E1 = -98.41483308075074  Ecoul = 24.061015320553725
cycle= 24 E= -74.353817760197  delta_E= -4.26e-14  |g|= 3.15e-11  |ddm|= 2.78e-11
    CPU time for cycle= 24      0.05 sec, wall time      0.01 sec
diis-norm(errvec)=4.44822e-11
Linear dependence found in DIIS error vectors.
diis-c [-2.89052492e-16  1.25000000e-01  1.25000000e-01  1.25000000e-01
  1.25000000e-01  1.25000000e-01  1.25000000e-01  1.25000000e-01
  1.25000000e-01]
alpha HOMO (B2u) = -1.32854143643147  LUMO (Ag) = -0.118052868835481
alpha irrep_nelec = [2, 0, 0, 0, 1, 1, 1]
beta  irrep_nelec = [2, 0, 0, 0, 0, 0, 0]
alpha-Ag nocc = 2  HOMO = -2.07378486127302  LUMO = -0.118052868835481
   mo_energy = [-21.41604839  -2.07378486  -0.11805287   0.51644724   0.51644724
   1.11993576   2.8330064    2.8330064   33.44946088]
alpha-B1g nocc = 0
   mo_energy = [0.51644724 2.8330064 ]
alpha-B2g nocc = 0
   mo_energy = [0.51644724 2.8330064 ]
alpha-B3g nocc = 0
   mo_energy = [0.51644724 2.8330064 ]
alpha-B1u nocc = 1  HOMO = -1.32854143643147  LUMO = -0.0657900047471551
   mo_energy = [-1.32854144 -0.06579     0.76732778 38.44257046]
alpha-B2u nocc = 1  HOMO = -1.32854143643147  LUMO = -0.0657900047471551
   mo_energy = [-1.32854144 -0.06579     0.76732778 38.44257046]
alpha-B3u nocc = 1  HOMO = -1.32854143643147  LUMO = -0.0657900047471551
   mo_energy = [-1.32854144 -0.06579     0.76732778 38.44257046]
beta-Ag nocc = 2  HOMO = -1.53574092051168  LUMO = -0.0935810700038976
   mo_energy = [-21.28160395  -1.53574092  -0.09358107   0.58585438   0.58585438
   1.25635816   3.05509085   3.05509085  33.5466188 ]
beta-B1g nocc = 0
   mo_energy = [0.58585438 3.05509085]
beta-B2g nocc = 0
   mo_energy = [0.58585438 3.05509085]
beta-B3g nocc = 0
   mo_energy = [0.58585438 3.05509085]
beta-B1u nocc = 0
   mo_energy = [-3.84835955e-01 -2.68908517e-02  9.66479009e-01  3.85378546e+01]
beta-B2u nocc = 0
   mo_energy = [-3.84835955e-01 -2.68908517e-02  9.66479009e-01  3.85378546e+01]
beta-B3u nocc = 0
   mo_energy = [-3.84835955e-01 -2.68908517e-02  9.66479009e-01  3.85378546e+01]
multiplicity <S^2> = 3.7553159  2S+1 = 4.002657
E1 = -98.4148330807549  Ecoul = 24.06101532055791
cycle= 25 E= -74.353817760197  delta_E= 2.84e-14  |g|= 2.55e-11  |ddm|= 1.53e-11
    CPU time for cycle= 25      0.05 sec, wall time      0.01 sec
diis-norm(errvec)=3.60389e-11
Linear dependence found in DIIS error vectors.
diis-c [-2.89052492e-16  1.25000000e-01  1.25000000e-01  1.25000000e-01
  1.25000000e-01  1.25000000e-01  1.25000000e-01  1.25000000e-01
  1.25000000e-01]
alpha HOMO (B2u) = -1.32854143643281  LUMO (Ag) = -0.118052868835346
alpha irrep_nelec = [2, 0, 0, 0, 1, 1, 1]
beta  irrep_nelec = [2, 0, 0, 0, 0, 0, 0]
alpha-Ag nocc = 2  HOMO = -2.07378486127452  LUMO = -0.118052868835346
   mo_energy = [-21.41604839  -2.07378486  -0.11805287   0.51644724   0.51644724
   1.11993576   2.8330064    2.8330064   33.44946088]
alpha-B1g nocc = 0
   mo_energy = [0.51644724 2.8330064 ]
alpha-B2g nocc = 0
   mo_energy = [0.51644724 2.8330064 ]
alpha-B3g nocc = 0
   mo_energy = [0.51644724 2.8330064 ]
alpha-B1u nocc = 1  HOMO = -1.32854143643281  LUMO = -0.0657900047471701
   mo_energy = [-1.32854144 -0.06579     0.76732778 38.44257046]
alpha-B2u nocc = 1  HOMO = -1.32854143643281  LUMO = -0.0657900047471703
   mo_energy = [-1.32854144 -0.06579     0.76732778 38.44257046]
alpha-B3u nocc = 1  HOMO = -1.32854143643281  LUMO = -0.0657900047471703
   mo_energy = [-1.32854144 -0.06579     0.76732778 38.44257046]
beta-Ag nocc = 2  HOMO = -1.53574092050706  LUMO = -0.0935810700034884
   mo_energy = [-21.28160395  -1.53574092  -0.09358107   0.58585438   0.58585438
   1.25635816   3.05509085   3.05509085  33.5466188 ]
beta-B1g nocc = 0
   mo_energy = [0.58585438 3.05509085]
beta-B2g nocc = 0
   mo_energy = [0.58585438 3.05509085]
beta-B3g nocc = 0
   mo_energy = [0.58585438 3.05509085]
beta-B1u nocc = 0
   mo_energy = [-3.84835955e-01 -2.68908517e-02  9.66479009e-01  3.85378546e+01]
beta-B2u nocc = 0
   mo_energy = [-3.84835955e-01 -2.68908517e-02  9.66479009e-01  3.85378546e+01]
beta-B3u nocc = 0
   mo_energy = [-3.84835955e-01 -2.68908517e-02  9.66479009e-01  3.85378546e+01]
multiplicity <S^2> = 3.7553159  2S+1 = 4.002657
E1 = -98.41483308075945  Ecoul = 24.061015320562504
cycle= 26 E= -74.3538177601969  delta_E= 4.26e-14  |g|= 1.88e-11  |ddm|= 1.79e-11
    CPU time for cycle= 26      0.05 sec, wall time      0.01 sec
diis-norm(errvec)=2.66425e-11
Linear dependence found in DIIS error vectors.
diis-c [-2.89052492e-16  1.25000000e-01  1.25000000e-01  1.25000000e-01
  1.25000000e-01  1.25000000e-01  1.25000000e-01  1.25000000e-01
  1.25000000e-01]
alpha HOMO (B1u) = -1.32854143643377  LUMO (Ag) = -0.118052868835289
alpha irrep_nelec = [2, 0, 0, 0, 1, 1, 1]
beta  irrep_nelec = [2, 0, 0, 0, 0, 0, 0]
alpha-Ag nocc = 2  HOMO = -2.07378486127572  LUMO = -0.118052868835289
   mo_energy = [-21.41604839  -2.07378486  -0.11805287   0.51644724   0.51644724
   1.11993576   2.8330064    2.8330064   33.44946088]
alpha-B1g nocc = 0
   mo_energy = [0.51644724 2.8330064 ]
alpha-B2g nocc = 0
   mo_energy = [0.51644724 2.8330064 ]
alpha-B3g nocc = 0
   mo_energy = [0.51644724 2.8330064 ]
alpha-B1u nocc = 1  HOMO = -1.32854143643377  LUMO = -0.0657900047471792
   mo_energy = [-1.32854144 -0.06579     0.76732778 38.44257046]
alpha-B2u nocc = 1  HOMO = -1.32854143643377  LUMO = -0.0657900047471793
   mo_energy = [-1.32854144 -0.06579     0.76732778 38.44257046]
alpha-B3u nocc = 1  HOMO = -1.32854143643377  LUMO = -0.0657900047471791
   mo_energy = [-1.32854144 -0.06579     0.76732778 38.44257046]
beta-Ag nocc = 2  HOMO = -1.53574092050494  LUMO = -0.0935810700032931
   mo_energy = [-21.28160395  -1.53574092  -0.09358107   0.58585438   0.58585438
   1.25635816   3.05509085   3.05509085  33.5466188 ]
beta-B1g nocc = 0
   mo_energy = [0.58585438 3.05509085]
beta-B2g nocc = 0
   mo_energy = [0.58585438 3.05509085]
beta-B3g nocc = 0
   mo_energy = [0.58585438 3.05509085]
beta-B1u nocc = 0
   mo_energy = [-3.84835955e-01 -2.68908517e-02  9.66479009e-01  3.85378546e+01]
beta-B2u nocc = 0
   mo_energy = [-3.84835955e-01 -2.68908517e-02  9.66479009e-01  3.85378546e+01]
beta-B3u nocc = 0
   mo_energy = [-3.84835955e-01 -2.68908517e-02  9.66479009e-01  3.85378546e+01]
multiplicity <S^2> = 3.7553159  2S+1 = 4.002657
E1 = -98.41483308076225  Ecoul = 24.06101532056529
cycle= 27 E= -74.353817760197  delta_E= -1.42e-14  |g|= 1.54e-11  |ddm|= 9e-12
    CPU time for cycle= 27      0.06 sec, wall time      0.01 sec
diis-norm(errvec)=2.17527e-11
Linear dependence found in DIIS error vectors.
diis-c [-2.89052492e-16  1.25000000e-01  1.25000000e-01  1.25000000e-01
  1.25000000e-01  1.25000000e-01  1.25000000e-01  1.25000000e-01
  1.25000000e-01]
alpha HOMO (B3u) = -1.32854143643419  LUMO (Ag) = -0.118052868835252
alpha irrep_nelec = [2, 0, 0, 0, 1, 1, 1]
beta  irrep_nelec = [2, 0, 0, 0, 0, 0, 0]
alpha-Ag nocc = 2  HOMO = -2.07378486127631  LUMO = -0.118052868835252
   mo_energy = [-21.41604839  -2.07378486  -0.11805287   0.51644724   0.51644724
   1.11993576   2.8330064    2.8330064   33.44946088]
alpha-B1g nocc = 0
   mo_energy = [0.51644724 2.8330064 ]
alpha-B2g nocc = 0
   mo_energy = [0.51644724 2.8330064 ]
alpha-B3g nocc = 0
   mo_energy = [0.51644724 2.8330064 ]
alpha-B1u nocc = 1  HOMO = -1.32854143643419  LUMO = -0.0657900047471789
   mo_energy = [-1.32854144 -0.06579     0.76732778 38.44257046]
alpha-B2u nocc = 1  HOMO = -1.32854143643419  LUMO = -0.0657900047471789
   mo_energy = [-1.32854144 -0.06579     0.76732778 38.44257046]
alpha-B3u nocc = 1  HOMO = -1.32854143643419  LUMO = -0.065790004747179
   mo_energy = [-1.32854144 -0.06579     0.76732778 38.44257046]
beta-Ag nocc = 2  HOMO = -1.5357409205037  LUMO = -0.0935810700031839
   mo_energy = [-21.28160395  -1.53574092  -0.09358107   0.58585438   0.58585438
   1.25635816   3.05509085   3.05509085  33.5466188 ]
beta-B1g nocc = 0
   mo_energy = [0.58585438 3.05509085]
beta-B2g nocc = 0
   mo_energy = [0.58585438 3.05509085]
beta-B3g nocc = 0
   mo_energy = [0.58585438 3.05509085]
beta-B1u nocc = 0
   mo_energy = [-3.84835955e-01 -2.68908517e-02  9.66479009e-01  3.85378546e+01]
beta-B2u nocc = 0
   mo_energy = [-3.84835955e-01 -2.68908517e-02  9.66479009e-01  3.85378546e+01]
beta-B3u nocc = 0
   mo_energy = [-3.84835955e-01 -2.68908517e-02  9.66479009e-01  3.85378546e+01]
multiplicity <S^2> = 3.7553159  2S+1 = 4.002657
E1 = -98.41483308076363  Ecoul = 24.06101532056664
cycle= 28 E= -74.353817760197  delta_E= -2.84e-14  |g|= 1.35e-11  |ddm|= 4.71e-12
    CPU time for cycle= 28      0.05 sec, wall time      0.01 sec
diis-norm(errvec)=1.91192e-11
Linear dependence found in DIIS error vectors.
diis-c [-2.89052492e-16  1.25000000e-01  1.25000000e-01  1.25000000e-01
  1.25000000e-01  1.25000000e-01  1.25000000e-01  1.25000000e-01
  1.25000000e-01]
alpha HOMO (B2u) = -1.32854143643434  LUMO (Ag) = -0.118052868835205
alpha irrep_nelec = [2, 0, 0, 0, 1, 1, 1]
beta  irrep_nelec = [2, 0, 0, 0, 0, 0, 0]
alpha-Ag nocc = 2  HOMO = -2.0737848612765  LUMO = -0.118052868835205
   mo_energy = [-21.41604839  -2.07378486  -0.11805287   0.51644724   0.51644724
   1.11993576   2.8330064    2.8330064   33.44946088]
alpha-B1g nocc = 0
   mo_energy = [0.51644724 2.8330064 ]
alpha-B2g nocc = 0
   mo_energy = [0.51644724 2.8330064 ]
alpha-B3g nocc = 0
   mo_energy = [0.51644724 2.8330064 ]
alpha-B1u nocc = 1  HOMO = -1.32854143643435  LUMO = -0.065790004747179
   mo_energy = [-1.32854144 -0.06579     0.76732778 38.44257046]
alpha-B2u nocc = 1  HOMO = -1.32854143643434  LUMO = -0.065790004747179
[...]
alpha-B2u nocc = 1  HOMO = -1.32854143643511  LUMO = -0.0657900047471704
   mo_energy = [-1.32854144 -0.06579     0.76732778 38.44257046]
alpha-B3u nocc = 1  HOMO = -1.32854143643511  LUMO = -0.0657900047471703
   mo_energy = [-1.32854144 -0.06579     0.76732778 38.44257046]
beta-Ag nocc = 2  HOMO = -1.53574092049292  LUMO = -0.0935810700022404
   mo_energy = [-21.28160395  -1.53574092  -0.09358107   0.58585438   0.58585438
   1.25635816   3.05509085   3.05509085  33.5466188 ]
beta-B1g nocc = 0
   mo_energy = [0.58585438 3.05509085]
beta-B2g nocc = 0
   mo_energy = [0.58585438 3.05509085]
beta-B3g nocc = 0
   mo_energy = [0.58585438 3.05509085]
beta-B1u nocc = 0
   mo_energy = [-3.84835955e-01 -2.68908517e-02  9.66479009e-01  3.85378546e+01]
beta-B2u nocc = 0
   mo_energy = [-3.84835955e-01 -2.68908517e-02  9.66479009e-01  3.85378546e+01]
beta-B3u nocc = 0
   mo_energy = [-3.84835955e-01 -2.68908517e-02  9.66479009e-01  3.85378546e+01]
multiplicity <S^2> = 3.7553159  2S+1 = 4.002657
E1 = -98.41483308077176  Ecoul = 24.06101532057476
cycle= 52 E= -74.353817760197  delta_E=    0  |g|= 1.18e-13  |ddm|= 7.35e-14
    CPU time for cycle= 52      0.05 sec, wall time      0.01 sec
diis-norm(errvec)=1.60392e-13
Linear dependence found in DIIS error vectors.
diis-c [-2.89052492e-16  1.25000000e-01  1.25000000e-01  1.25000000e-01
  1.25000000e-01  1.25000000e-01  1.25000000e-01  1.25000000e-01
  1.25000000e-01]
alpha HOMO (B3u) = -1.32854143643511  LUMO (Ag) = -0.118052868834889
alpha irrep_nelec = [2, 0, 0, 0, 1, 1, 1]
beta  irrep_nelec = [2, 0, 0, 0, 0, 0, 0]
alpha-Ag nocc = 2  HOMO = -2.07378486127736  LUMO = -0.118052868834889
   mo_energy = [-21.41604839  -2.07378486  -0.11805287   0.51644724   0.51644724
   1.11993576   2.8330064    2.8330064   33.44946088]
alpha-B1g nocc = 0
   mo_energy = [0.51644724 2.8330064 ]
alpha-B2g nocc = 0
   mo_energy = [0.51644724 2.8330064 ]
alpha-B3g nocc = 0
   mo_energy = [0.51644724 2.8330064 ]
alpha-B1u nocc = 1  HOMO = -1.32854143643511  LUMO = -0.0657900047471704
   mo_energy = [-1.32854144 -0.06579     0.76732778 38.44257046]
alpha-B2u nocc = 1  HOMO = -1.32854143643511  LUMO = -0.0657900047471704
   mo_energy = [-1.32854144 -0.06579     0.76732778 38.44257046]
alpha-B3u nocc = 1  HOMO = -1.32854143643511  LUMO = -0.0657900047471702
   mo_energy = [-1.32854144 -0.06579     0.76732778 38.44257046]
beta-Ag nocc = 2  HOMO = -1.5357409204929  LUMO = -0.0935810700022386
   mo_energy = [-21.28160395  -1.53574092  -0.09358107   0.58585438   0.58585438
   1.25635816   3.05509085   3.05509085  33.5466188 ]
beta-B1g nocc = 0
   mo_energy = [0.58585438 3.05509085]
beta-B2g nocc = 0
   mo_energy = [0.58585438 3.05509085]
beta-B3g nocc = 0
   mo_energy = [0.58585438 3.05509085]
beta-B1u nocc = 0
   mo_energy = [-3.84835955e-01 -2.68908517e-02  9.66479009e-01  3.85378546e+01]
beta-B2u nocc = 0
   mo_energy = [-3.84835955e-01 -2.68908517e-02  9.66479009e-01  3.85378546e+01]
beta-B3u nocc = 0
   mo_energy = [-3.84835955e-01 -2.68908517e-02  9.66479009e-01  3.85378546e+01]
multiplicity <S^2> = 3.7553159  2S+1 = 4.002657
E1 = -98.41483308077174  Ecoul = 24.06101532057478
cycle= 53 E= -74.353817760197  delta_E= 2.84e-14  |g|= 9.46e-14  |ddm|= 6.08e-14
    CPU time for cycle= 53      0.06 sec, wall time      0.01 sec
diis-norm(errvec)=1.36526e-13
Linear dependence found in DIIS error vectors.
diis-c [-2.89052492e-16  1.25000000e-01  1.25000000e-01  1.25000000e-01
  1.25000000e-01  1.25000000e-01  1.25000000e-01  1.25000000e-01
  1.25000000e-01]
alpha HOMO (B3u) = -1.32854143643512  LUMO (Ag) = -0.118052868834889
alpha irrep_nelec = [2, 0, 0, 0, 1, 1, 1]
beta  irrep_nelec = [2, 0, 0, 0, 0, 0, 0]
alpha-Ag nocc = 2  HOMO = -2.07378486127735  LUMO = -0.118052868834889
   mo_energy = [-21.41604839  -2.07378486  -0.11805287   0.51644724   0.51644724
   1.11993576   2.8330064    2.8330064   33.44946088]
alpha-B1g nocc = 0
   mo_energy = [0.51644724 2.8330064 ]
alpha-B2g nocc = 0
   mo_energy = [0.51644724 2.8330064 ]
alpha-B3g nocc = 0
   mo_energy = [0.51644724 2.8330064 ]
alpha-B1u nocc = 1  HOMO = -1.32854143643512  LUMO = -0.0657900047471705
   mo_energy = [-1.32854144 -0.06579     0.76732778 38.44257046]
alpha-B2u nocc = 1  HOMO = -1.32854143643512  LUMO = -0.0657900047471705
   mo_energy = [-1.32854144 -0.06579     0.76732778 38.44257046]
alpha-B3u nocc = 1  HOMO = -1.32854143643512  LUMO = -0.0657900047471701
   mo_energy = [-1.32854144 -0.06579     0.76732778 38.44257046]
beta-Ag nocc = 2  HOMO = -1.53574092049289  LUMO = -0.0935810700022386
   mo_energy = [-21.28160395  -1.53574092  -0.09358107   0.58585438   0.58585438
   1.25635816   3.05509085   3.05509085  33.5466188 ]
beta-B1g nocc = 0
   mo_energy = [0.58585438 3.05509085]
beta-B2g nocc = 0
   mo_energy = [0.58585438 3.05509085]
beta-B3g nocc = 0
   mo_energy = [0.58585438 3.05509085]
beta-B1u nocc = 0
   mo_energy = [-3.84835955e-01 -2.68908517e-02  9.66479009e-01  3.85378546e+01]
beta-B2u nocc = 0
   mo_energy = [-3.84835955e-01 -2.68908517e-02  9.66479009e-01  3.85378546e+01]
beta-B3u nocc = 0
   mo_energy = [-3.84835955e-01 -2.68908517e-02  9.66479009e-01  3.85378546e+01]
multiplicity <S^2> = 3.7553159  2S+1 = 4.002657
E1 = -98.41483308077173  Ecoul = 24.06101532057479
cycle= 54 E= -74.3538177601969  delta_E= 2.84e-14  |g|= 7.91e-14  |ddm|= 4.29e-14
    CPU time for cycle= 54      0.05 sec, wall time      0.01 sec
diis-norm(errvec)=1.13067e-13
Linear dependence found in DIIS error vectors.
diis-c [-2.89052492e-16  1.25000000e-01  1.25000000e-01  1.25000000e-01
  1.25000000e-01  1.25000000e-01  1.25000000e-01  1.25000000e-01
  1.25000000e-01]
alpha HOMO (B1u) = -1.32854143643512  LUMO (Ag) = -0.118052868834889
alpha irrep_nelec = [2, 0, 0, 0, 1, 1, 1]
beta  irrep_nelec = [2, 0, 0, 0, 0, 0, 0]
alpha-Ag nocc = 2  HOMO = -2.07378486127736  LUMO = -0.118052868834889
   mo_energy = [-21.41604839  -2.07378486  -0.11805287   0.51644724   0.51644724
   1.11993576   2.8330064    2.8330064   33.44946088]
alpha-B1g nocc = 0
   mo_energy = [0.51644724 2.8330064 ]
alpha-B2g nocc = 0
   mo_energy = [0.51644724 2.8330064 ]
alpha-B3g nocc = 0
   mo_energy = [0.51644724 2.8330064 ]
alpha-B1u nocc = 1  HOMO = -1.32854143643512  LUMO = -0.0657900047471705
   mo_energy = [-1.32854144 -0.06579     0.76732778 38.44257046]
alpha-B2u nocc = 1  HOMO = -1.32854143643512  LUMO = -0.0657900047471704
   mo_energy = [-1.32854144 -0.06579     0.76732778 38.44257046]
alpha-B3u nocc = 1  HOMO = -1.32854143643512  LUMO = -0.0657900047471702
   mo_energy = [-1.32854144 -0.06579     0.76732778 38.44257046]
beta-Ag nocc = 2  HOMO = -1.53574092049286  LUMO = -0.0935810700022353
   mo_energy = [-21.28160395  -1.53574092  -0.09358107   0.58585438   0.58585438
   1.25635816   3.05509085   3.05509085  33.5466188 ]
beta-B1g nocc = 0
   mo_energy = [0.58585438 3.05509085]
beta-B2g nocc = 0
   mo_energy = [0.58585438 3.05509085]
beta-B3g nocc = 0
   mo_energy = [0.58585438 3.05509085]
beta-B1u nocc = 0
   mo_energy = [-3.84835955e-01 -2.68908517e-02  9.66479009e-01  3.85378546e+01]
beta-B2u nocc = 0
   mo_energy = [-3.84835955e-01 -2.68908517e-02  9.66479009e-01  3.85378546e+01]
beta-B3u nocc = 0
   mo_energy = [-3.84835955e-01 -2.68908517e-02  9.66479009e-01  3.85378546e+01]
multiplicity <S^2> = 3.7553159  2S+1 = 4.002657
E1 = -98.41483308077173  Ecoul = 24.0610153205748
cycle= 55 E= -74.3538177601969  delta_E=    0  |g|= 6.52e-14  |ddm|= 5.68e-14
    CPU time for cycle= 55      0.05 sec, wall time      0.01 sec
diis-norm(errvec)=1.2344e-13
Linear dependence found in DIIS error vectors.
diis-c [-2.89052492e-16  1.25000000e-01  1.25000000e-01  1.25000000e-01
  1.25000000e-01  1.25000000e-01  1.25000000e-01  1.25000000e-01
  1.25000000e-01]
alpha HOMO (B3u) = -1.32854143643512  LUMO (Ag) = -0.118052868834888
alpha irrep_nelec = [2, 0, 0, 0, 1, 1, 1]
beta  irrep_nelec = [2, 0, 0, 0, 0, 0, 0]
alpha-Ag nocc = 2  HOMO = -2.07378486127735  LUMO = -0.118052868834888
   mo_energy = [-21.41604839  -2.07378486  -0.11805287   0.51644724   0.51644724
   1.11993576   2.8330064    2.8330064   33.44946088]
alpha-B1g nocc = 0
   mo_energy = [0.51644724 2.8330064 ]
alpha-B2g nocc = 0
   mo_energy = [0.51644724 2.8330064 ]
alpha-B3g nocc = 0
   mo_energy = [0.51644724 2.8330064 ]
alpha-B1u nocc = 1  HOMO = -1.32854143643512  LUMO = -0.0657900047471702
   mo_energy = [-1.32854144 -0.06579     0.76732778 38.44257046]
alpha-B2u nocc = 1  HOMO = -1.32854143643512  LUMO = -0.0657900047471703
   mo_energy = [-1.32854144 -0.06579     0.76732778 38.44257046]
alpha-B3u nocc = 1  HOMO = -1.32854143643512  LUMO = -0.0657900047471701
   mo_energy = [-1.32854144 -0.06579     0.76732778 38.44257046]
beta-Ag nocc = 2  HOMO = -1.53574092049288  LUMO = -0.0935810700022367
   mo_energy = [-21.28160395  -1.53574092  -0.09358107   0.58585438   0.58585438
   1.25635816   3.05509085   3.05509085  33.5466188 ]
beta-B1g nocc = 0
   mo_energy = [0.58585438 3.05509085]
beta-B2g nocc = 0
   mo_energy = [0.58585438 3.05509085]
beta-B3g nocc = 0
   mo_energy = [0.58585438 3.05509085]
beta-B1u nocc = 0
   mo_energy = [-3.84835955e-01 -2.68908517e-02  9.66479009e-01  3.85378546e+01]
beta-B2u nocc = 0
   mo_energy = [-3.84835955e-01 -2.68908517e-02  9.66479009e-01  3.85378546e+01]
beta-B3u nocc = 0
   mo_energy = [-3.84835955e-01 -2.68908517e-02  9.66479009e-01  3.85378546e+01]
multiplicity <S^2> = 3.7553159  2S+1 = 4.002657
E1 = -98.4148330807717  Ecoul = 24.061015320574782
cycle= 56 E= -74.3538177601969  delta_E= 1.42e-14  |g|= 5.63e-14  |ddm|= 1.38e-14
    CPU time for cycle= 56      0.05 sec, wall time      0.01 sec
diis-norm(errvec)=7.88545e-14
Linear dependence found in DIIS error vectors.
diis-c [-2.89052492e-16  1.25000000e-01  1.25000000e-01  1.25000000e-01
  1.25000000e-01  1.25000000e-01  1.25000000e-01  1.25000000e-01
  1.25000000e-01]
alpha HOMO (B2u) = -1.32854143643512  LUMO (Ag) = -0.118052868834888
alpha irrep_nelec = [2, 0, 0, 0, 1, 1, 1]
beta  irrep_nelec = [2, 0, 0, 0, 0, 0, 0]
alpha-Ag nocc = 2  HOMO = -2.07378486127736  LUMO = -0.118052868834888
   mo_energy = [-21.41604839  -2.07378486  -0.11805287   0.51644724   0.51644724
   1.11993576   2.8330064    2.8330064   33.44946088]
alpha-B1g nocc = 0
   mo_energy = [0.51644724 2.8330064 ]
alpha-B2g nocc = 0
   mo_energy = [0.51644724 2.8330064 ]
alpha-B3g nocc = 0
   mo_energy = [0.51644724 2.8330064 ]
alpha-B1u nocc = 1  HOMO = -1.32854143643512  LUMO = -0.0657900047471704
   mo_energy = [-1.32854144 -0.06579     0.76732778 38.44257046]
alpha-B2u nocc = 1  HOMO = -1.32854143643512  LUMO = -0.0657900047471704
   mo_energy = [-1.32854144 -0.06579     0.76732778 38.44257046]
alpha-B3u nocc = 1  HOMO = -1.32854143643512  LUMO = -0.0657900047471702
   mo_energy = [-1.32854144 -0.06579     0.76732778 38.44257046]
beta-Ag nocc = 2  HOMO = -1.53574092049286  LUMO = -0.0935810700022344
   mo_energy = [-21.28160395  -1.53574092  -0.09358107   0.58585438   0.58585438
   1.25635816   3.05509085   3.05509085  33.5466188 ]
beta-B1g nocc = 0
   mo_energy = [0.58585438 3.05509085]
beta-B2g nocc = 0
   mo_energy = [0.58585438 3.05509085]
beta-B3g nocc = 0
   mo_energy = [0.58585438 3.05509085]
beta-B1u nocc = 0
   mo_energy = [-3.84835955e-01 -2.68908517e-02  9.66479009e-01  3.85378546e+01]
beta-B2u nocc = 0
   mo_energy = [-3.84835955e-01 -2.68908517e-02  9.66479009e-01  3.85378546e+01]
beta-B3u nocc = 0
   mo_energy = [-3.84835955e-01 -2.68908517e-02  9.66479009e-01  3.85378546e+01]
multiplicity <S^2> = 3.7553159  2S+1 = 4.002657
E1 = -98.4148330807717  Ecoul = 24.06101532057479
cycle= 57 E= -74.3538177601969  delta_E= 1.42e-14  |g|= 4.78e-14  |ddm|= 4.6e-14
    CPU time for cycle= 57      0.05 sec, wall time      0.01 sec
diis-norm(errvec)=6.92027e-14
Linear dependence found in DIIS error vectors.
diis-c [-2.89052492e-16  1.25000000e-01  1.25000000e-01  1.25000000e-01
  1.25000000e-01  1.25000000e-01  1.25000000e-01  1.25000000e-01
  1.25000000e-01]
alpha HOMO (B3u) = -1.32854143643512  LUMO (Ag) = -0.118052868834888
alpha irrep_nelec = [2, 0, 0, 0, 1, 1, 1]
beta  irrep_nelec = [2, 0, 0, 0, 0, 0, 0]
alpha-Ag nocc = 2  HOMO = -2.07378486127737  LUMO = -0.118052868834888
   mo_energy = [-21.41604839  -2.07378486  -0.11805287   0.51644724   0.51644724
   1.11993576   2.8330064    2.8330064   33.44946088]
alpha-B1g nocc = 0
   mo_energy = [0.51644724 2.8330064 ]
alpha-B2g nocc = 0
   mo_energy = [0.51644724 2.8330064 ]
alpha-B3g nocc = 0
   mo_energy = [0.51644724 2.8330064 ]
alpha-B1u nocc = 1  HOMO = -1.32854143643512  LUMO = -0.0657900047471706
   mo_energy = [-1.32854144 -0.06579     0.76732778 38.44257046]
alpha-B2u nocc = 1  HOMO = -1.32854143643512  LUMO = -0.0657900047471705
   mo_energy = [-1.32854144 -0.06579     0.76732778 38.44257046]
alpha-B3u nocc = 1  HOMO = -1.32854143643512  LUMO = -0.0657900047471704
   mo_energy = [-1.32854144 -0.06579     0.76732778 38.44257046]
beta-Ag nocc = 2  HOMO = -1.53574092049285  LUMO = -0.0935810700022346
   mo_energy = [-21.28160395  -1.53574092  -0.09358107   0.58585438   0.58585438
   1.25635816   3.05509085   3.05509085  33.5466188 ]
beta-B1g nocc = 0
   mo_energy = [0.58585438 3.05509085]
beta-B2g nocc = 0
   mo_energy = [0.58585438 3.05509085]
beta-B3g nocc = 0
   mo_energy = [0.58585438 3.05509085]
beta-B1u nocc = 0
   mo_energy = [-3.84835955e-01 -2.68908517e-02  9.66479009e-01  3.85378546e+01]
beta-B2u nocc = 0
   mo_energy = [-3.84835955e-01 -2.68908517e-02  9.66479009e-01  3.85378546e+01]
beta-B3u nocc = 0
   mo_energy = [-3.84835955e-01 -2.68908517e-02  9.66479009e-01  3.85378546e+01]
multiplicity <S^2> = 3.7553159  2S+1 = 4.002657
E1 = -98.41483308077177  Ecoul = 24.061015320574825
cycle= 58 E= -74.3538177601969  delta_E= -4.26e-14  |g|= 3.55e-14  |ddm|= 2.11e-14
    CPU time for cycle= 58      0.05 sec, wall time      0.01 sec
diis-norm(errvec)=4.81313e-14
Linear dependence found in DIIS error vectors.
diis-c [-2.89052492e-16  1.25000000e-01  1.25000000e-01  1.25000000e-01
  1.25000000e-01  1.25000000e-01  1.25000000e-01  1.25000000e-01
  1.25000000e-01]
alpha HOMO (B1u) = -1.32854143643512  LUMO (Ag) = -0.118052868834887
alpha irrep_nelec = [2, 0, 0, 0, 1, 1, 1]
beta  irrep_nelec = [2, 0, 0, 0, 0, 0, 0]
alpha-Ag nocc = 2  HOMO = -2.07378486127737  LUMO = -0.118052868834887
   mo_energy = [-21.41604839  -2.07378486  -0.11805287   0.51644724   0.51644724
   1.11993576   2.8330064    2.8330064   33.44946088]
alpha-B1g nocc = 0
   mo_energy = [0.51644724 2.8330064 ]
alpha-B2g nocc = 0
   mo_energy = [0.51644724 2.8330064 ]
alpha-B3g nocc = 0
   mo_energy = [0.51644724 2.8330064 ]
alpha-B1u nocc = 1  HOMO = -1.32854143643512  LUMO = -0.0657900047471706
   mo_energy = [-1.32854144 -0.06579     0.76732778 38.44257046]
alpha-B2u nocc = 1  HOMO = -1.32854143643512  LUMO = -0.0657900047471705
   mo_energy = [-1.32854144 -0.06579     0.76732778 38.44257046]
alpha-B3u nocc = 1  HOMO = -1.32854143643512  LUMO = -0.0657900047471704
   mo_energy = [-1.32854144 -0.06579     0.76732778 38.44257046]
beta-Ag nocc = 2  HOMO = -1.53574092049285  LUMO = -0.093581070002234
   mo_energy = [-21.28160395  -1.53574092  -0.09358107   0.58585438   0.58585438
   1.25635816   3.05509085   3.05509085  33.5466188 ]
beta-B1g nocc = 0
   mo_energy = [0.58585438 3.05509085]
beta-B2g nocc = 0
   mo_energy = [0.58585438 3.05509085]
beta-B3g nocc = 0
   mo_energy = [0.58585438 3.05509085]
beta-B1u nocc = 0
   mo_energy = [-3.84835955e-01 -2.68908517e-02  9.66479009e-01  3.85378546e+01]
beta-B2u nocc = 0
   mo_energy = [-3.84835955e-01 -2.68908517e-02  9.66479009e-01  3.85378546e+01]
beta-B3u nocc = 0
   mo_energy = [-3.84835955e-01 -2.68908517e-02  9.66479009e-01  3.85378546e+01]
multiplicity <S^2> = 3.7553159  2S+1 = 4.002657
E1 = -98.41483308077176  Ecoul = 24.061015320574818
cycle= 59 E= -74.3538177601969  delta_E= 1.42e-14  |g|= 4.18e-14  |ddm|= 1.55e-14
    CPU time for cycle= 59      0.05 sec, wall time      0.01 sec
diis-norm(errvec)=7.73762e-14
Linear dependence found in DIIS error vectors.
diis-c [-2.89052492e-16  1.25000000e-01  1.25000000e-01  1.25000000e-01
  1.25000000e-01  1.25000000e-01  1.25000000e-01  1.25000000e-01
  1.25000000e-01]
alpha HOMO (B3u) = -1.32854143643512  LUMO (Ag) = -0.118052868834888
alpha irrep_nelec = [2, 0, 0, 0, 1, 1, 1]
beta  irrep_nelec = [2, 0, 0, 0, 0, 0, 0]
alpha-Ag nocc = 2  HOMO = -2.07378486127737  LUMO = -0.118052868834888
   mo_energy = [-21.41604839  -2.07378486  -0.11805287   0.51644724   0.51644724
   1.11993576   2.8330064    2.8330064   33.44946088]
alpha-B1g nocc = 0
   mo_energy = [0.51644724 2.8330064 ]
alpha-B2g nocc = 0
   mo_energy = [0.51644724 2.8330064 ]
alpha-B3g nocc = 0
   mo_energy = [0.51644724 2.8330064 ]
alpha-B1u nocc = 1  HOMO = -1.32854143643512  LUMO = -0.0657900047471704
   mo_energy = [-1.32854144 -0.06579     0.76732778 38.44257046]
alpha-B2u nocc = 1  HOMO = -1.32854143643512  LUMO = -0.0657900047471706
   mo_energy = [-1.32854144 -0.06579     0.76732778 38.44257046]
alpha-B3u nocc = 1  HOMO = -1.32854143643512  LUMO = -0.0657900047471702
   mo_energy = [-1.32854144 -0.06579     0.76732778 38.44257046]
beta-Ag nocc = 2  HOMO = -1.53574092049285  LUMO = -0.0935810700022338
   mo_energy = [-21.28160395  -1.53574092  -0.09358107   0.58585438   0.58585438
   1.25635816   3.05509085   3.05509085  33.5466188 ]
beta-B1g nocc = 0
   mo_energy = [0.58585438 3.05509085]
beta-B2g nocc = 0
   mo_energy = [0.58585438 3.05509085]
beta-B3g nocc = 0
   mo_energy = [0.58585438 3.05509085]
beta-B1u nocc = 0
   mo_energy = [-3.84835955e-01 -2.68908517e-02  9.66479009e-01  3.85378546e+01]
beta-B2u nocc = 0
   mo_energy = [-3.84835955e-01 -2.68908517e-02  9.66479009e-01  3.85378546e+01]
beta-B3u nocc = 0
   mo_energy = [-3.84835955e-01 -2.68908517e-02  9.66479009e-01  3.85378546e+01]
multiplicity <S^2> = 3.7553159  2S+1 = 4.002657
E1 = -98.41483308077176  Ecoul = 24.061015320574825
cycle= 60 E= -74.3538177601969  delta_E=    0  |g|= 4.88e-14  |ddm|= 8.66e-15
    CPU time for cycle= 60      0.05 sec, wall time      0.01 sec
alpha HOMO (B1u) = -1.32854143643512  LUMO (Ag) = -0.118052868834887
alpha irrep_nelec = [2, 0, 0, 0, 1, 1, 1]
beta  irrep_nelec = [2, 0, 0, 0, 0, 0, 0]
alpha-Ag nocc = 2  HOMO = -2.07378486127736  LUMO = -0.118052868834887
   mo_energy = [-21.41604839  -2.07378486  -0.11805287   0.51644724   0.51644724
   1.11993576   2.8330064    2.8330064   33.44946088]
alpha-B1g nocc = 0
   mo_energy = [0.51644724 2.8330064 ]
alpha-B2g nocc = 0
   mo_energy = [0.51644724 2.8330064 ]
alpha-B3g nocc = 0
   mo_energy = [0.51644724 2.8330064 ]
alpha-B1u nocc = 1  HOMO = -1.32854143643512  LUMO = -0.0657900047471699
   mo_energy = [-1.32854144 -0.06579     0.76732778 38.44257046]
alpha-B2u nocc = 1  HOMO = -1.32854143643512  LUMO = -0.0657900047471697
   mo_energy = [-1.32854144 -0.06579     0.76732778 38.44257046]
alpha-B3u nocc = 1  HOMO = -1.32854143643512  LUMO = -0.0657900047471701
   mo_energy = [-1.32854144 -0.06579     0.76732778 38.44257046]
beta-Ag nocc = 2  HOMO = -1.53574092049283  LUMO = -0.0935810700022329
   mo_energy = [-21.28160395  -1.53574092  -0.09358107   0.58585438   0.58585438
   1.25635816   3.05509085   3.05509085  33.5466188 ]
beta-B1g nocc = 0
   mo_energy = [0.58585438 3.05509085]
beta-B2g nocc = 0
   mo_energy = [0.58585438 3.05509085]
beta-B3g nocc = 0
   mo_energy = [0.58585438 3.05509085]
beta-B1u nocc = 0
   mo_energy = [-3.84835955e-01 -2.68908517e-02  9.66479009e-01  3.85378546e+01]
beta-B2u nocc = 0
   mo_energy = [-3.84835955e-01 -2.68908517e-02  9.66479009e-01  3.85378546e+01]
beta-B3u nocc = 0
   mo_energy = [-3.84835955e-01 -2.68908517e-02  9.66479009e-01  3.85378546e+01]
multiplicity <S^2> = 3.7553159  2S+1 = 4.002657
E1 = -98.41483308077176  Ecoul = 24.061015320574832
Extra cycle  E= -74.3538177601969  delta_E=    0  |g|= 3.47e-14  |ddm|= 8.66e-15
    CPU time for scf_cycle      3.68 sec, wall time      1.05 sec
    CPU time for SCF      3.68 sec, wall time      1.05 sec
converged SCF energy = -74.3538177601969  <S^2> = 3.7553159  2S+1 = 4.002657
