#INFO: **** input file is /lustre06/project/6058907/jaafar1/PySCF-MRCC/Oxygen/Neutral/AE/aCV6Z/NetworkStorage/CC-5/LongWall/input.py ****
import pyscf
from pyscf import cc, lib, tools, scf, symm, ao2mo
from pyscf.gto.basis import parse_gaussian
from pyscf.cc.mrcc import MRCCInterface

name = 'oute64'
mol = pyscf.M(
    atom = '''
        O
    ''',
    unit = 'angstrom',
    basis = {
            'O' : parse_gaussian.load('O-aCV6Z-MOLP.gbs', 'O')
    },
    charge = 0,
    spin = 2,
    symmetry = True,
    verbose = 9,
    symmetry_subgroup = 'D2h',
    output = name +'.txt',
    max_memory = 64000,
)
mf = mol.UHF().set(conv_tol=1e-9,max_cycle=9999,ddm_tol=1e-11,direct_scf_tol=1e-11,chkfile=name+'.chk',init_guess='atom',irrep_nelec={'Ag': 4, 'B3u':2 , 'B2u':1 ,'B1u':1 })
mf.kernel()

#pyscf.tools.fcidump.from_chkfile_uhf('FCIdump',name+'.chk',tol=1e-18, float_format='% 0.20E',molpro_orbsym=False,orbsym=None)
pyscf.tools.fcidump.from_scf_uhf(mf,'fort.55',tol=1e-18, float_format='% 0.20E',molpro_orbsym=False)

#MRCCInterface.run_mrcc(mf, fort_file='fort.55', mrcc_input_file='MINP', tol=1e-18, float_format='% 0.20E', molpro_orbsym=False)
#INFO: ******************** input file end ********************


System: uname_result(system='Linux', node='nc30416.narval.calcul.quebec', release='4.18.0-553.36.1.el8_10.x86_64', version='#1 SMP Wed Jan 22 16:34:48 UTC 2025', machine='x86_64')  Threads 4
Python 3.12.4 (main, Jun  7 2024, 23:47:47) [GCC 13.3.0]
numpy 2.1.1  scipy 1.14.1  h5py 3.12.0
Date: Thu Jan 30 05:42:46 2025
PySCF version 2.7.0
PySCF path  /home/jaafar1/projects/def-nike-ab/jaafar1/VENV/MRCCInterface/lib/python3.12/site-packages/pyscf

[CONFIG] ARGPARSE = False
[CONFIG] DEBUG = False
[CONFIG] MAX_MEMORY = 4000
[CONFIG] TMPDIR = /tmp
[CONFIG] UNIT = angstrom
[CONFIG] VERBOSE = 3
[CONFIG] conf_file = None
[INPUT] verbose = 9
[INPUT] max_memory = 64000 
[INPUT] num. atoms = 1
[INPUT] num. electrons = 8
[INPUT] charge = 0
[INPUT] spin (= nelec alpha-beta = 2S) = 2
[INPUT] symmetry True subgroup D2h
[INPUT] Mole.unit = angstrom
[INPUT] Symbol           X                Y                Z      unit          X                Y                Z       unit  Magmom
[INPUT]  1 O      0.000000000000   0.000000000000   0.000000000000 AA    0.000000000000   0.000000000000   0.000000000000 Bohr   0.0
[INPUT] ---------------- BASIS SET ---------------- 
[INPUT] l, kappa, [nprim/nctr], expnt,             c_1 c_2 ...
[INPUT] O
[INPUT] 0    0    [1    /1   ]  317.096              1
[INPUT] 0    0    [1    /1   ]  160.393              1
[INPUT] 0    0    [1    /1   ]  81.129               1
[INPUT] 0    0    [1    /1   ]  41.037               1
[INPUT] 0    0    [1    /1   ]  20.757               1
[INPUT] 0    0    [16   /2   ]  570800            6e-06 -1e-06
                                85480             4.3e-05 -1e-05
                                19460             0.000227 -5.1e-05
                                5512              0.000956 -0.000217
                                1798              0.003473 -0.000792
                                648.9             0.011198 -0.002559
                                253.1             0.032388 -0.007533
                                104.9             0.08286 -0.019789
                                45.65             0.179584 -0.046063
                                20.62             0.305221 -0.089196
                                9.587             0.340893 -0.137542
                                4.493             0.177426 -0.105119
                                1.837             0.020491 0.144771
                                0.8349            -0.000968 0.441463
                                0.3658            0.001057 0.444681
                                0.157             -9.7e-05 0.128243
[INPUT] 0    0    [1    /1   ]  4.493                1
[INPUT] 0    0    [1    /1   ]  1.837                1
[INPUT] 0    0    [1    /1   ]  0.8349               1
[INPUT] 0    0    [1    /1   ]  0.3658               1
[INPUT] 0    0    [1    /1   ]  0.157                1
[INPUT] 0    0    [1    /1   ]  0.05935              1
[INPUT] 1    0    [1    /1   ]  358.911              1
[INPUT] 1    0    [1    /1   ]  161.818              1
[INPUT] 1    0    [1    /1   ]  72.957               1
[INPUT] 1    0    [1    /1   ]  32.893               1
[INPUT] 1    0    [1    /1   ]  14.83                1
[INPUT] 1    0    [1    /1   ]  2.732                1
[INPUT] 1    0    [1    /1   ]  1.227                1
[INPUT] 1    0    [10   /1   ]  525.6             0.000167
                                124.6             0.001433
                                40.34             0.007548
                                15.18             0.028595
                                6.245             0.084389
                                2.732             0.187483
                                1.227             0.297906
                                0.5492            0.338558
                                0.2418            0.247261
                                0.1025            0.070033
[INPUT] 1    0    [1    /1   ]  0.5492               1
[INPUT] 1    0    [1    /1   ]  0.2418               1
[INPUT] 1    0    [1    /1   ]  0.1025               1
[INPUT] 2    0    [1    /1   ]  250.83               1
[INPUT] 2    0    [1    /1   ]  108.163              1
[INPUT] 2    0    [1    /1   ]  46.642               1
[INPUT] 2    0    [1    /1   ]  20.113               1
[INPUT] 2    0    [1    /1   ]  8.253                1
[INPUT] 2    0    [1    /1   ]  3.597                1
[INPUT] 2    0    [1    /1   ]  1.568                1
[INPUT] 2    0    [1    /1   ]  0.684                1
[INPUT] 2    0    [1    /1   ]  0.298                1
[INPUT] 3    0    [1    /1   ]  136.111              1
[INPUT] 3    0    [1    /1   ]  48.855               1
[INPUT] 3    0    [1    /1   ]  17.536               1
[INPUT] 3    0    [1    /1   ]  5.43                 1
[INPUT] 3    0    [1    /1   ]  2.416                1
[INPUT] 3    0    [1    /1   ]  1.075                1
[INPUT] 3    0    [1    /1   ]  0.478                1
[INPUT] 4    0    [1    /1   ]  81.628               1
[INPUT] 4    0    [1    /1   ]  24.065               1
[INPUT] 4    0    [1    /1   ]  5.211                1
[INPUT] 4    0    [1    /1   ]  2.19                 1
[INPUT] 4    0    [1    /1   ]  0.92                 1
[INPUT] 5    0    [1    /1   ]  62.85                1
[INPUT] 5    0    [1    /1   ]  3.872                1
[INPUT] 5    0    [1    /1   ]  1.505                1
[INPUT] 6    0    [1    /1   ]  2.773                1

nuclear repulsion = 0
point group symmetry = SO3, use subgroup D2h
symmetry origin: [0. 0. 0.]
symmetry axis x: [1. 0. 0.]
symmetry axis y: [0. 1. 0.]
symmetry axis z: [0. 0. 1.]
num. orbitals of irrep Ag = 50
num. orbitals of irrep B1g = 22
num. orbitals of irrep B2g = 22
num. orbitals of irrep B3g = 22
num. orbitals of irrep Au = 13
num. orbitals of irrep B1u = 34
num. orbitals of irrep B2u = 34
num. orbitals of irrep B3u = 34
number of shells = 48
number of NR pGTOs = 272
number of NR cGTOs = 231
basis = {'O': [[0, [317.096, 1.0]], [0, [160.393, 1.0]], [0, [81.129, 1.0]], [0, [41.037, 1.0]], [0, [20.757, 1.0]], [0, [570800.0, 6e-06, -1e-06], [85480.0, 4.3e-05, -1e-05], [19460.0, 0.000227, -5.1e-05], [5512.0, 0.000956, -0.000217], [1798.0, 0.003473, -0.000792], [648.9, 0.011198, -0.002559], [253.1, 0.032388, -0.007533], [104.9, 0.08286, -0.019789], [45.65, 0.179584, -0.046063], [20.62, 0.305221, -0.089196], [9.587, 0.340893, -0.137542], [4.493, 0.177426, -0.105119], [1.837, 0.020491, 0.144771], [0.8349, -0.000968, 0.441463], [0.3658, 0.001057, 0.444681], [0.157, -9.7e-05, 0.128243]], [0, [4.493, 1.0]], [0, [1.837, 1.0]], [0, [0.8349, 1.0]], [0, [0.3658, 1.0]], [0, [0.157, 1.0]], [0, [0.05935, 1.0]], [1, [358.911, 1.0]], [1, [161.818, 1.0]], [1, [72.957, 1.0]], [1, [32.893, 1.0]], [1, [14.83, 1.0]], [1, [2.732, 1.0]], [1, [1.227, 1.0]], [1, [525.6, 0.000167], [124.6, 0.001433], [40.34, 0.007548], [15.18, 0.028595], [6.245, 0.084389], [2.732, 0.187483], [1.227, 0.297906], [0.5492, 0.338558], [0.2418, 0.247261], [0.1025, 0.070033]], [1, [0.5492, 1.0]], [1, [0.2418, 1.0]], [1, [0.1025, 1.0]], [2, [250.83, 1.0]], [2, [108.163, 1.0]], [2, [46.642, 1.0]], [2, [20.113, 1.0]], [2, [8.253, 1.0]], [2, [3.597, 1.0]], [2, [1.568, 1.0]], [2, [0.684, 1.0]], [2, [0.298, 1.0]], [3, [136.111, 1.0]], [3, [48.855, 1.0]], [3, [17.536, 1.0]], [3, [5.43, 1.0]], [3, [2.416, 1.0]], [3, [1.075, 1.0]], [3, [0.478, 1.0]], [4, [81.628, 1.0]], [4, [24.065, 1.0]], [4, [5.211, 1.0]], [4, [2.19, 1.0]], [4, [0.92, 1.0]], [5, [62.85, 1.0]], [5, [3.872, 1.0]], [5, [1.505, 1.0]], [6, [2.773, 1.0]]]}
ecp = {}
bas 0, expnt(s) = [317.096]
bas 1, expnt(s) = [160.393]
bas 2, expnt(s) = [81.129]
bas 3, expnt(s) = [41.037]
bas 4, expnt(s) = [20.757]
bas 5, expnt(s) = [5.708e+05 8.548e+04 1.946e+04 5.512e+03 1.798e+03 6.489e+02 2.531e+02
 1.049e+02 4.565e+01 2.062e+01 9.587e+00 4.493e+00 1.837e+00 8.349e-01
 3.658e-01 1.570e-01]
bas 6, expnt(s) = [4.493]
bas 7, expnt(s) = [1.837]
bas 8, expnt(s) = [0.8349]
bas 9, expnt(s) = [0.3658]
bas 10, expnt(s) = [0.157]
bas 11, expnt(s) = [0.05935]
bas 12, expnt(s) = [358.911]
bas 13, expnt(s) = [161.818]
bas 14, expnt(s) = [72.957]
bas 15, expnt(s) = [32.893]
bas 16, expnt(s) = [14.83]
bas 17, expnt(s) = [2.732]
bas 18, expnt(s) = [1.227]
bas 19, expnt(s) = [5.256e+02 1.246e+02 4.034e+01 1.518e+01 6.245e+00 2.732e+00 1.227e+00
 5.492e-01 2.418e-01 1.025e-01]
bas 20, expnt(s) = [0.5492]
bas 21, expnt(s) = [0.2418]
bas 22, expnt(s) = [0.1025]
bas 23, expnt(s) = [250.83]
bas 24, expnt(s) = [108.163]
bas 25, expnt(s) = [46.642]
bas 26, expnt(s) = [20.113]
bas 27, expnt(s) = [8.253]
bas 28, expnt(s) = [3.597]
bas 29, expnt(s) = [1.568]
bas 30, expnt(s) = [0.684]
bas 31, expnt(s) = [0.298]
bas 32, expnt(s) = [136.111]
bas 33, expnt(s) = [48.855]
bas 34, expnt(s) = [17.536]
bas 35, expnt(s) = [5.43]
bas 36, expnt(s) = [2.416]
bas 37, expnt(s) = [1.075]
bas 38, expnt(s) = [0.478]
bas 39, expnt(s) = [81.628]
bas 40, expnt(s) = [24.065]
bas 41, expnt(s) = [5.211]
bas 42, expnt(s) = [2.19]
bas 43, expnt(s) = [0.92]
bas 44, expnt(s) = [62.85]
bas 45, expnt(s) = [3.872]
bas 46, expnt(s) = [1.505]
bas 47, expnt(s) = [2.773]
CPU time:         1.53
arg.atm = [[ 8 20  1 23  0  0]]
arg.bas = [[  0   0   1   1   0  24  25   0]
 [  0   0   1   1   0  26  27   0]
 [  0   0   1   1   0  28  29   0]
 [  0   0   1   1   0  30  31   0]
 [  0   0   1   1   0  32  33   0]
 [  0   0  16   2   0  34  50   0]
 [  0   0   1   1   0  82  83   0]
 [  0   0   1   1   0  84  85   0]
 [  0   0   1   1   0  86  87   0]
 [  0   0   1   1   0  88  89   0]
 [  0   0   1   1   0  90  91   0]
 [  0   0   1   1   0  92  93   0]
 [  0   1   1   1   0  94  95   0]
 [  0   1   1   1   0  96  97   0]
 [  0   1   1   1   0  98  99   0]
 [  0   1   1   1   0 100 101   0]
 [  0   1   1   1   0 102 103   0]
 [  0   1   1   1   0 104 105   0]
 [  0   1   1   1   0 106 107   0]
 [  0   1  10   1   0 108 118   0]
 [  0   1   1   1   0 128 129   0]
 [  0   1   1   1   0 130 131   0]
 [  0   1   1   1   0 132 133   0]
 [  0   2   1   1   0 134 135   0]
 [  0   2   1   1   0 136 137   0]
 [  0   2   1   1   0 138 139   0]
 [  0   2   1   1   0 140 141   0]
 [  0   2   1   1   0 142 143   0]
 [  0   2   1   1   0 144 145   0]
 [  0   2   1   1   0 146 147   0]
 [  0   2   1   1   0 148 149   0]
 [  0   2   1   1   0 150 151   0]
 [  0   3   1   1   0 152 153   0]
 [  0   3   1   1   0 154 155   0]
 [  0   3   1   1   0 156 157   0]
 [  0   3   1   1   0 158 159   0]
 [  0   3   1   1   0 160 161   0]
 [  0   3   1   1   0 162 163   0]
 [  0   3   1   1   0 164 165   0]
 [  0   4   1   1   0 166 167   0]
 [  0   4   1   1   0 168 169   0]
 [  0   4   1   1   0 170 171   0]
 [  0   4   1   1   0 172 173   0]
 [  0   4   1   1   0 174 175   0]
 [  0   5   1   1   0 176 177   0]
 [  0   5   1   1   0 178 179   0]
 [  0   5   1   1   0 180 181   0]
 [  0   6   1   1   0 182 183   0]]
arg.env = [ 0.00000000e+00  0.00000000e+00  0.00000000e+00  0.00000000e+00
  0.00000000e+00  0.00000000e+00  0.00000000e+00  0.00000000e+00
  0.00000000e+00  0.00000000e+00  0.00000000e+00  0.00000000e+00
  0.00000000e+00  0.00000000e+00  0.00000000e+00  0.00000000e+00
  0.00000000e+00  0.00000000e+00  0.00000000e+00  0.00000000e+00
  0.00000000e+00  0.00000000e+00  0.00000000e+00  0.00000000e+00
  3.17096000e+02  1.89848905e+02  1.60393000e+02  1.13868626e+02
  8.11290000e+01  6.82962906e+01  4.10370000e+01  4.09634690e+01
  2.07570000e+01  2.45690556e+01  5.70800000e+05  8.54800000e+04
  1.94600000e+04  5.51200000e+03  1.79800000e+03  6.48900000e+02
  2.53100000e+02  1.04900000e+02  4.56500000e+01  2.06200000e+01
  9.58700000e+00  4.49300000e+00  1.83700000e+00  8.34900000e-01
  3.65800000e-01  1.57000000e-01  3.14796090e-01  5.43102681e-01
  9.44926634e-01  1.54509400e+00  2.42276982e+00  3.63738189e+00
  5.19240244e+00  6.86185681e+00  7.96825701e+00  7.46184138e+00
  4.69240226e+00  1.38335831e+00  8.16883505e-02 -2.13607408e-03
  1.25609611e-03 -6.11239736e-05 -5.24660311e-02 -1.26302988e-01
 -2.12296357e-01 -3.50717050e-01 -5.52500513e-01 -8.31225495e-01
 -1.20768123e+00 -1.63878018e+00 -2.04384541e+00 -2.18060555e+00
 -1.89327029e+00 -8.19594006e-01  5.77136685e-01  9.74171444e-01
  5.28441100e-01  8.08115891e-02  4.49300000e+00  7.79681695e+00
  1.83700000e+00  3.98654703e+00  8.34900000e-01  2.20668768e+00
  3.65800000e-01  1.18835938e+00  1.57000000e-01  6.30143939e-01
  5.93500000e-02  3.03794961e-01  3.58911000e+02  4.55740741e+03
  1.61818000e+02  1.68371247e+03  7.29570000e+01  6.22039698e+02
  3.28930000e+01  2.29807262e+02  1.48300000e+01  8.49006141e+01
  2.73200000e+00  1.02467293e+01  1.22700000e+00  3.76738580e+00
  5.25600000e+02  1.24600000e+02  4.03400000e+01  1.51800000e+01
  6.24500000e+00  2.73200000e+00  1.22700000e+00  5.49200000e-01
  2.41800000e-01  1.02500000e-01  1.22608296e+00  1.74031528e+00
  2.23864871e+00  2.49956253e+00  2.43044381e+00  1.92108665e+00
  1.12232631e+00  4.66960808e-01  1.22309498e-01  1.18492743e-02
  5.49200000e-01  1.37926448e+00  2.41800000e-01  4.94657688e-01
  1.02500000e-01  1.69195662e-01  2.50830000e+02  4.12518541e+04
  1.08163000e+02  9.46601424e+03  4.66420000e+01  2.17214806e+03
  2.01130000e+01  4.98441139e+02  8.25300000e+00  1.04857649e+02
  3.59700000e+00  2.45146192e+01  1.56800000e+00  5.73304021e+00
  6.84000000e-01  1.34238646e+00  2.98000000e-01  3.13622959e-01
  1.36111000e+02  1.24815959e+05  4.88550000e+01  1.24467410e+04
  1.75360000e+01  1.24123516e+03  5.43000000e+00  8.87789447e+01
  2.41600000e+00  1.43541822e+01  1.07500000e+00  2.32102280e+00
  4.78000000e-01  3.74734026e-01  8.16280000e+01  2.37945108e+05
  2.40650000e+01  8.27428040e+03  5.21100000e+00  1.23155001e+02
  2.19000000e+00  1.13537785e+01  9.20000000e-01  1.04552790e+00
  6.28500000e+01  5.54300056e+05  3.87200000e+00  6.45717622e+01
  1.50500000e+00  2.99396267e+00  2.77300000e+00  2.01545491e+01]
ecpbas  = []


******** <class 'pyscf.scf.uhf_symm.SymAdaptedUHF'> ********
method = SymAdaptedUHF
initial guess = atom
damping factor = 0
level_shift factor = 0
DIIS = <class 'pyscf.scf.diis.CDIIS'>
diis_start_cycle = 1
diis_space = 8
diis_damp = 0
SCF conv_tol = 1e-09
SCF conv_tol_grad = None
SCF ddm_tol = 1e-11
SCF max_cycles = 9999
direct_scf = True
direct_scf_tol = 1e-11
chkfile to save SCF result = oute64.chk
max_memory 64000 MB (current use 90 MB)
number electrons alpha = 5  beta = 3
irrep_nelec {'Ag': 4, 'B3u': 2, 'B2u': 1, 'B1u': 1}
Freeze 8 electrons in irreps ['Ag', 'B3u', 'B2u', 'B1u']
    0 free electrons in irreps B1g B2g B3g Au
cond(S) = 13610821.409334904
Set gradient conv threshold to 3.16228e-05
Spherically averaged atomic HF for {'O'}


******** <class 'pyscf.scf.atom_hf.AtomSphAverageRHF'> ********
method = AtomSphAverageRHF
initial guess = minao
damping factor = 0
level_shift factor = 0
DIIS = <class 'pyscf.scf.diis.CDIIS'>
diis_start_cycle = 1
diis_space = 8
diis_damp = 0
SCF conv_tol = 1e-09
SCF conv_tol_grad = None
SCF ddm_tol = 1e-10
SCF max_cycles = 50
direct_scf = True
direct_scf_tol = 1e-13
chkfile to save SCF result = /tmp/tmpuwtg510b
max_memory 64000 MB (current use 94 MB)
atom = O
Set gradient conv threshold to 3.16228e-05
Initial guess from minao.
Nelec from initial guess = 7.999733486016561
E1 = -103.09133086640115  E_coul = 28.805710005478947
init E= -74.2856208609222
l = 0  e_0 = -20.7015061
l = 0  e_1 = -1.26313492
l = 0  e_2 = 0.104742457
l = 0  e_3 = 0.58376011
l = 0  e_4 = 2.04653661
l = 0  e_5 = 6.08760175
l = 0  e_6 = 17.1788679
l = 0  e_7 = 45.6507191
l = 0  e_8 = 111.897867
l = 0  e_9 = 256.098423
l = 0  e_10 = 567.607453
l = 0  e_11 = 1269.31419
l = 0  e_12 = 4066.61898
l = 1  e_0 = -0.391072864
l = 1  e_1 = 0.25957743
l = 1  e_2 = 1.0300824
l = 1  e_3 = 2.89612108
l = 1  e_4 = 7.31462295
l = 1  e_5 = 18.0315576
l = 1  e_6 = 44.8077428
l = 1  e_7 = 110.180029
l = 1  e_8 = 264.505473
l = 1  e_9 = 632.037047
l = 1  e_10 = 1546.42582
l = 2  e_0 = 0.808799816
l = 2  e_1 = 2.34986737
l = 2  e_2 = 5.78248865
l = 2  e_3 = 13.7446446
l = 2  e_4 = 32.8078877
l = 2  e_5 = 80.3516653
l = 2  e_6 = 197.394761
l = 2  e_7 = 484.31628
l = 2  e_8 = 1222.25739
l = 3  e_0 = 1.83421353
l = 3  e_1 = 5.01489557
l = 3  e_2 = 11.8513348
l = 3  e_3 = 27.7456065
l = 3  e_4 = 78.3306227
l = 3  e_5 = 230.629136
l = 3  e_6 = 688.536416
l = 4  e_0 = 4.51911967
l = 4  e_1 = 12.3122573
l = 4  e_2 = 30.909181
l = 4  e_3 = 122.917093
l = 4  e_4 = 451.518472
l = 5  e_0 = 9.06224168
l = 5  e_1 = 25.7918753
l = 5  e_2 = 385.895822
l = 6  e_0 = 19.8856333
    CPU time for initialize scf     26.37 sec, wall time      7.48 sec
l = 0  e_0 = -20.7015061
l = 0  e_1 = -1.26313492
l = 0  e_2 = 0.104742457
l = 0  e_3 = 0.58376011
l = 0  e_4 = 2.04653661
l = 0  e_5 = 6.08760175
l = 0  e_6 = 17.1788679
l = 0  e_7 = 45.6507191
l = 0  e_8 = 111.897867
l = 0  e_9 = 256.098423
l = 0  e_10 = 567.607453
l = 0  e_11 = 1269.31419
l = 0  e_12 = 4066.61898
l = 1  e_0 = -0.391072864
l = 1  e_1 = 0.25957743
l = 1  e_2 = 1.0300824
l = 1  e_3 = 2.89612108
l = 1  e_4 = 7.31462295
l = 1  e_5 = 18.0315576
l = 1  e_6 = 44.8077428
l = 1  e_7 = 110.180029
l = 1  e_8 = 264.505473
l = 1  e_9 = 632.037047
l = 1  e_10 = 1546.42582
l = 2  e_0 = 0.808799816
l = 2  e_1 = 2.34986737
l = 2  e_2 = 5.78248865
l = 2  e_3 = 13.7446446
l = 2  e_4 = 32.8078877
l = 2  e_5 = 80.3516653
l = 2  e_6 = 197.394761
l = 2  e_7 = 484.31628
l = 2  e_8 = 1222.25739
l = 3  e_0 = 1.83421353
l = 3  e_1 = 5.01489557
l = 3  e_2 = 11.8513348
l = 3  e_3 = 27.7456065
l = 3  e_4 = 78.3306227
l = 3  e_5 = 230.629136
l = 3  e_6 = 688.536416
l = 4  e_0 = 4.51911967
l = 4  e_1 = 12.3122573
l = 4  e_2 = 30.909181
l = 4  e_3 = 122.917093
l = 4  e_4 = 451.518472
l = 5  e_0 = 9.06224168
l = 5  e_1 = 25.7918753
l = 5  e_2 = 385.895822
l = 6  e_0 = 19.8856333
l = 0  occ = 2 + 0
l = 1  occ = 0 + 1.333
l = 2  occ = 0 + 0
l = 3  occ = 0 + 0
E1 = -102.39171476234506  E_coul = 28.095851320120815
cycle= 1 E= -74.2958634422242  delta_E= -0.0102  |g|=    0  |ddm|= 1.06
    CPU time for cycle= 1      1.88 sec, wall time      0.48 sec
diis-norm(errvec)=0.135147
diis-c [-0.01826476  1.        ]
l = 0  e_0 = -20.8754651
l = 0  e_1 = -1.33206826
l = 0  e_2 = 0.101382222
l = 0  e_3 = 0.569863504
l = 0  e_4 = 2.01261756
l = 0  e_5 = 6.01969889
l = 0  e_6 = 17.0687369
l = 0  e_7 = 45.5060864
l = 0  e_8 = 111.731436
l = 0  e_9 = 255.918567
l = 0  e_10 = 567.417728
l = 0  e_11 = 1269.11454
l = 0  e_12 = 4066.40666
l = 1  e_0 = -0.446810748
l = 1  e_1 = 0.253893044
l = 1  e_2 = 1.00879856
l = 1  e_3 = 2.85033801
l = 1  e_4 = 7.23609535
l = 1  e_5 = 17.916089
l = 1  e_6 = 44.6601994
l = 1  e_7 = 110.011393
l = 1  e_8 = 264.323602
l = 1  e_9 = 631.845084
l = 1  e_10 = 1546.22332
l = 2  e_0 = 0.795991017
l = 2  e_1 = 2.31557377
l = 2  e_2 = 5.71998271
l = 2  e_3 = 13.6466546
l = 2  e_4 = 32.6748584
l = 2  e_5 = 80.1919292
l = 2  e_6 = 197.218683
l = 2  e_7 = 484.129136
l = 2  e_8 = 1222.05941
l = 3  e_0 = 1.82141566
l = 3  e_1 = 4.97539925
l = 3  e_2 = 11.7746493
l = 3  e_3 = 27.6270796
l = 3  e_4 = 78.1726103
l = 3  e_5 = 230.451621
l = 3  e_6 = 688.346269
l = 4  e_0 = 4.49459632
l = 4  e_1 = 12.2472317
l = 4  e_2 = 30.7953597
l = 4  e_3 = 122.751142
l = 4  e_4 = 451.334959
l = 5  e_0 = 9.02399264
l = 5  e_1 = 25.699949
l = 5  e_2 = 385.715995
l = 6  e_0 = 19.820977
l = 0  occ = 2 + 0
l = 1  occ = 0 + 1.333
l = 2  occ = 0 + 0
l = 3  occ = 0 + 0
E1 = -102.75799124214082  E_coul = 28.460887958937228
cycle= 2 E= -74.2971032832036  delta_E= -0.00124  |g|=    0  |ddm|= 0.0881
    CPU time for cycle= 2      1.88 sec, wall time      0.47 sec
diis-norm(errvec)=0.058475
diis-c [-3.10862185e-04  2.93833228e-01  7.06166772e-01]
l = 0  e_0 = -20.8110868
l = 0  e_1 = -1.30987237
l = 0  e_2 = 0.102501692
l = 0  e_3 = 0.574134069
l = 0  e_4 = 2.02390137
l = 0  e_5 = 6.04370648
l = 0  e_6 = 17.1088971
l = 0  e_7 = 45.5594611
l = 0  e_8 = 111.793084
l = 0  e_9 = 255.985265
l = 0  e_10 = 567.487933
l = 0  e_11 = 1269.18755
l = 0  e_12 = 4066.48204
l = 1  e_0 = -0.425537571
l = 1  e_1 = 0.256179303
l = 1  e_2 = 1.01693483
l = 1  e_3 = 2.867393
l = 1  e_4 = 7.26503267
l = 1  e_5 = 17.958572
l = 1  e_6 = 44.714556
l = 1  e_7 = 110.073721
l = 1  e_8 = 264.391013
l = 1  e_9 = 631.916074
l = 1  e_10 = 1546.29707
l = 2  e_0 = 0.800552719
l = 2  e_1 = 2.32814326
l = 2  e_2 = 5.74289104
l = 2  e_3 = 13.682795
l = 2  e_4 = 32.7240571
l = 2  e_5 = 80.2510275
l = 2  e_6 = 197.284041
l = 2  e_7 = 484.198736
l = 2  e_8 = 1222.1323
l = 3  e_0 = 1.82598163
l = 3  e_1 = 4.98967164
l = 3  e_2 = 11.8027484
l = 3  e_3 = 27.6708603
l = 3  e_4 = 78.2310367
l = 3  e_5 = 230.51758
l = 3  e_6 = 688.417076
l = 4  e_0 = 4.5033008
l = 4  e_1 = 12.2708971
l = 4  e_2 = 30.8373992
l = 4  e_3 = 122.812481
l = 4  e_4 = 451.40336
l = 5  e_0 = 9.0376245
l = 5  e_1 = 25.733745
l = 5  e_2 = 385.782791
l = 6  e_0 = 19.8444117
l = 0  occ = 2 + 0
l = 1  occ = 0 + 1.333
l = 2  occ = 0 + 0
l = 3  occ = 0 + 0
E1 = -102.62708139845586  E_coul = 28.32960051535139
cycle= 3 E= -74.2974808831045  delta_E= -0.000378  |g|=    0  |ddm|= 0.0268
    CPU time for cycle= 3      1.88 sec, wall time      0.47 sec
diis-norm(errvec)=0.00671669
diis-c [-2.16656414e-06 -9.48843429e-02 -1.01764588e-01  1.19664893e+00]
l = 0  e_0 = -20.8145192
l = 0  e_1 = -1.31203622
l = 0  e_2 = 0.102379271
l = 0  e_3 = 0.57365748
l = 0  e_4 = 2.02295789
l = 0  e_5 = 6.04213902
l = 0  e_6 = 17.1065833
l = 0  e_7 = 45.5565242
l = 0  e_8 = 111.789814
l = 0  e_9 = 255.981945
l = 0  e_10 = 567.484761
l = 0  e_11 = 1269.18465
l = 0  e_12 = 4066.47941
l = 1  e_0 = -0.426475835
l = 1  e_1 = 0.256085122
l = 1  e_2 = 1.0165405
l = 1  e_3 = 2.86652023
l = 1  e_4 = 7.26347383
l = 1  e_5 = 17.9562387
l = 1  e_6 = 44.7115614
l = 1  e_7 = 110.070387
l = 1  e_8 = 264.387673
l = 1  e_9 = 631.912942
l = 1  e_10 = 1546.29424
l = 2  e_0 = 0.80024583
l = 2  e_1 = 2.32744158
l = 2  e_2 = 5.74162822
l = 2  e_3 = 13.680835
l = 2  e_4 = 32.7213452
l = 2  e_5 = 80.247744
l = 2  e_6 = 197.280588
l = 2  e_7 = 484.195447
l = 2  e_8 = 1222.12934
l = 3  e_0 = 1.82567332
l = 3  e_1 = 4.98884224
l = 3  e_2 = 11.8012186
l = 3  e_3 = 27.6684676
l = 3  e_4 = 78.2277284
l = 3  e_5 = 230.514041
l = 3  e_6 = 688.413843
l = 4  e_0 = 4.50274024
l = 4  e_1 = 12.2695916
l = 4  e_2 = 30.8351297
l = 4  e_3 = 122.808972
l = 4  e_4 = 451.399857
l = 5  e_0 = 9.03679305
l = 5  e_1 = 25.7319422
l = 5  e_2 = 385.77914
l = 6  e_0 = 19.8431068
l = 0  occ = 2 + 0
l = 1  occ = 0 + 1.333
l = 2  occ = 0 + 0
l = 3  occ = 0 + 0
E1 = -102.63493563705697  E_coul = 28.337450369737258
cycle= 4 E= -74.2974852673197  delta_E= -4.38e-06  |g|=    0  |ddm|= 0.00557
    CPU time for cycle= 4      1.88 sec, wall time      0.47 sec
diis-norm(errvec)=0.000275619
diis-c [-4.96430971e-09  1.54471224e-03  1.93703652e-03 -5.87127861e-02
  1.05523104e+00]
l = 0  e_0 = -20.8146588
l = 0  e_1 = -1.31213708
l = 0  e_2 = 0.102364565
l = 0  e_3 = 0.573623011
l = 0  e_4 = 2.02289628
l = 0  e_5 = 6.04204823
l = 0  e_6 = 17.106468
l = 0  e_7 = 45.5563931
l = 0  e_8 = 111.789678
l = 0  e_9 = 255.981818
l = 0  e_10 = 567.48465
l = 0  e_11 = 1269.18456
l = 0  e_12 = 4066.47936
l = 1  e_0 = -0.426529335
l = 1  e_1 = 0.256072002
l = 1  e_2 = 1.01650488
l = 1  e_3 = 2.86645901
l = 1  e_4 = 7.26338483
l = 1  e_5 = 17.9561246
l = 1  e_6 = 44.7114293
l = 1  e_7 = 110.07025
l = 1  e_8 = 264.387545
l = 1  e_9 = 631.912835
l = 1  e_10 = 1546.29416
l = 2  e_0 = 0.800214939
l = 2  e_1 = 2.32738718
l = 2  e_2 = 5.74154714
l = 2  e_3 = 13.6807299
l = 2  e_4 = 32.721218
l = 2  e_5 = 80.2476028
l = 2  e_6 = 197.280449
l = 2  e_7 = 484.195327
l = 2  e_8 = 1222.12925
l = 3  e_0 = 1.82563807
l = 3  e_1 = 4.9887771
l = 3  e_2 = 11.8011263
l = 3  e_3 = 27.6683485
l = 3  e_4 = 78.2275841
l = 3  e_5 = 230.513898
l = 3  e_6 = 688.413728
l = 4  e_0 = 4.50268626
l = 4  e_1 = 12.2695056
l = 4  e_2 = 30.8350137
l = 4  e_3 = 122.808822
l = 4  e_4 = 451.399721
l = 5  e_0 = 9.03672434
l = 5  e_1 = 25.7318396
l = 5  e_2 = 385.778992
l = 6  e_0 = 19.8430192
l = 0  occ = 2 + 0
l = 1  occ = 0 + 1.333
l = 2  occ = 0 + 0
l = 3  occ = 0 + 0
E1 = -102.63524650031655  E_coul = 28.33776122395014
cycle= 5 E= -74.2974852763664  delta_E= -9.05e-09  |g|=    0  |ddm|= 0.000299
    CPU time for cycle= 5      1.88 sec, wall time      0.47 sec
diis-norm(errvec)=1.15188e-05
diis-c [-1.01377397e-11 -8.37677370e-05 -1.60250378e-04  7.57183660e-03
 -1.84506067e-01  1.17717825e+00]
l = 0  e_0 = -20.8146605
l = 0  e_1 = -1.31214048
l = 0  e_2 = 0.102363283
l = 0  e_3 = 0.573621363
l = 0  e_4 = 2.02289375
l = 0  e_5 = 6.04204533
l = 0  e_6 = 17.1064658
l = 0  e_7 = 45.5563912
l = 0  e_8 = 111.789676
l = 0  e_9 = 255.981816
l = 0  e_10 = 567.484648
l = 0  e_11 = 1269.18456
l = 0  e_12 = 4066.47935
l = 1  e_0 = -0.426531499
l = 1  e_1 = 0.256071071
l = 1  e_2 = 1.01650276
l = 1  e_3 = 2.86645619
l = 1  e_4 = 7.26338199
l = 1  e_5 = 17.9561224
l = 1  e_6 = 44.7114275
l = 1  e_7 = 110.070249
l = 1  e_8 = 264.387543
l = 1  e_9 = 631.912833
l = 1  e_10 = 1546.29415
l = 2  e_0 = 0.800212445
l = 2  e_1 = 2.32738422
l = 2  e_2 = 5.74154404
l = 2  e_3 = 13.6807275
l = 2  e_4 = 32.7212162
l = 2  e_5 = 80.2476011
l = 2  e_6 = 197.280447
l = 2  e_7 = 484.195324
l = 2  e_8 = 1222.12925
l = 3  e_0 = 1.82563502
l = 3  e_1 = 4.98877358
l = 3  e_2 = 11.8011236
l = 3  e_3 = 27.6683465
l = 3  e_4 = 78.2275824
l = 3  e_5 = 230.513896
l = 3  e_6 = 688.413726
l = 4  e_0 = 4.50268239
l = 4  e_1 = 12.2695025
l = 4  e_2 = 30.8350118
l = 4  e_3 = 122.80882
l = 4  e_4 = 451.399719
l = 5  e_0 = 9.03672041
l = 5  e_1 = 25.7318372
l = 5  e_2 = 385.77899
l = 6  e_0 = 19.8430159
l = 0  occ = 2 + 0
l = 1  occ = 0 + 1.333
l = 2  occ = 0 + 0
l = 3  occ = 0 + 0
E1 = -102.63523577481669  E_coul = 28.337750498402272
cycle= 6 E= -74.2974852764144  delta_E= -4.8e-11  |g|=    0  |ddm|= 1.61e-05
    CPU time for cycle= 6      1.89 sec, wall time      0.47 sec
diis-norm(errvec)=1.19234e-06
diis-c [-9.95352257e-14 -1.47774676e-06  1.46127142e-05 -2.45562360e-04
  5.66152901e-03 -5.65492208e-02  1.05112012e+00]
l = 0  e_0 = -20.8146614
l = 0  e_1 = -1.31214106
l = 0  e_2 = 0.102363224
l = 0  e_3 = 0.573621199
l = 0  e_4 = 2.02289341
l = 0  e_5 = 6.04204474
l = 0  e_6 = 17.106465
l = 0  e_7 = 45.5563903
l = 0  e_8 = 111.789676
l = 0  e_9 = 255.981815
l = 0  e_10 = 567.484647
l = 0  e_11 = 1269.18455
l = 0  e_12 = 4066.47935
l = 1  e_0 = -0.426531982
l = 1  e_1 = 0.256071001
l = 1  e_2 = 1.01650253
l = 1  e_3 = 2.86645576
l = 1  e_4 = 7.26338134
l = 1  e_5 = 17.9561216
l = 1  e_6 = 44.7114266
l = 1  e_7 = 110.070248
l = 1  e_8 = 264.387543
l = 1  e_9 = 631.912832
l = 1  e_10 = 1546.29415
l = 2  e_0 = 0.800212248
l = 2  e_1 = 2.32738384
l = 2  e_2 = 5.74154345
l = 2  e_3 = 13.6807267
l = 2  e_4 = 32.7212153
l = 2  e_5 = 80.2476001
l = 2  e_6 = 197.280446
l = 2  e_7 = 484.195324
l = 2  e_8 = 1222.12924
l = 3  e_0 = 1.82563481
l = 3  e_1 = 4.98877312
l = 3  e_2 = 11.8011229
l = 3  e_3 = 27.6683457
l = 3  e_4 = 78.2275815
l = 3  e_5 = 230.513895
l = 3  e_6 = 688.413725
l = 4  e_0 = 4.50268204
l = 4  e_1 = 12.2695018
l = 4  e_2 = 30.8350109
l = 4  e_3 = 122.808819
l = 4  e_4 = 451.399718
l = 5  e_0 = 9.03671993
l = 5  e_1 = 25.7318364
l = 5  e_2 = 385.778989
l = 6  e_0 = 19.8430153
l = 0  occ = 2 + 0
l = 1  occ = 0 + 1.333
l = 2  occ = 0 + 0
l = 3  occ = 0 + 0
E1 = -102.63523758701432  E_coul = 28.33775231059985
cycle= 7 E= -74.2974852764145  delta_E= -4.26e-14  |g|=    0  |ddm|= 8.24e-07
    CPU time for cycle= 7      1.88 sec, wall time      0.47 sec
diis-norm(errvec)=3.97282e-08
diis-c [-2.86190728e-16  5.60910027e-07 -6.68705303e-07 -6.43141593e-06
  2.22370110e-04  1.26501130e-03 -1.16985278e-01  1.11550444e+00]
l = 0  e_0 = -20.8146614
l = 0  e_1 = -1.31214106
l = 0  e_2 = 0.102363223
l = 0  e_3 = 0.573621196
l = 0  e_4 = 2.0228934
l = 0  e_5 = 6.04204473
l = 0  e_6 = 17.106465
l = 0  e_7 = 45.5563903
l = 0  e_8 = 111.789676
l = 0  e_9 = 255.981815
l = 0  e_10 = 567.484647
l = 0  e_11 = 1269.18455
l = 0  e_12 = 4066.47935
l = 1  e_0 = -0.426531989
l = 1  e_1 = 0.256071
l = 1  e_2 = 1.01650253
l = 1  e_3 = 2.86645575
l = 1  e_4 = 7.26338133
l = 1  e_5 = 17.9561216
l = 1  e_6 = 44.7114266
l = 1  e_7 = 110.070248
l = 1  e_8 = 264.387543
l = 1  e_9 = 631.912832
l = 1  e_10 = 1546.29415
l = 2  e_0 = 0.800212244
l = 2  e_1 = 2.32738384
l = 2  e_2 = 5.74154345
l = 2  e_3 = 13.6807267
l = 2  e_4 = 32.7212153
l = 2  e_5 = 80.2476001
l = 2  e_6 = 197.280446
l = 2  e_7 = 484.195323
l = 2  e_8 = 1222.12924
l = 3  e_0 = 1.8256348
l = 3  e_1 = 4.98877311
l = 3  e_2 = 11.8011229
l = 3  e_3 = 27.6683457
l = 3  e_4 = 78.2275815
l = 3  e_5 = 230.513895
l = 3  e_6 = 688.413725
l = 4  e_0 = 4.50268203
l = 4  e_1 = 12.2695018
l = 4  e_2 = 30.8350109
l = 4  e_3 = 122.808819
l = 4  e_4 = 451.399718
l = 5  e_0 = 9.03671992
l = 5  e_1 = 25.7318364
l = 5  e_2 = 385.778989
l = 6  e_0 = 19.8430153
l = 0  occ = 2 + 0
l = 1  occ = 0 + 1.333
l = 2  occ = 0 + 0
l = 3  occ = 0 + 0
E1 = -102.63523757420117  E_coul = 28.337752297786384
cycle= 8 E= -74.2974852764148  delta_E= -3.27e-13  |g|=    0  |ddm|= 3.59e-08
    CPU time for cycle= 8      1.88 sec, wall time      0.47 sec
diis-norm(errvec)=1.69397e-09
Linear dependence found in DIIS error vectors.
diis-c [-1.00719892e-15  2.49411377e-07 -1.78929718e-07 -5.16001255e-06
  1.53141852e-04  9.73909915e-05 -4.53158573e-02  4.90554979e-01
  5.54515435e-01]
l = 0  e_0 = -20.8146614
l = 0  e_1 = -1.31214106
l = 0  e_2 = 0.102363223
l = 0  e_3 = 0.573621196
l = 0  e_4 = 2.0228934
l = 0  e_5 = 6.04204473
l = 0  e_6 = 17.106465
l = 0  e_7 = 45.5563903
l = 0  e_8 = 111.789676
l = 0  e_9 = 255.981815
l = 0  e_10 = 567.484647
l = 0  e_11 = 1269.18455
l = 0  e_12 = 4066.47935
l = 1  e_0 = -0.426531989
l = 1  e_1 = 0.256071
l = 1  e_2 = 1.01650253
l = 1  e_3 = 2.86645575
l = 1  e_4 = 7.26338133
l = 1  e_5 = 17.9561216
l = 1  e_6 = 44.7114266
l = 1  e_7 = 110.070248
l = 1  e_8 = 264.387543
l = 1  e_9 = 631.912832
l = 1  e_10 = 1546.29415
l = 2  e_0 = 0.800212244
l = 2  e_1 = 2.32738384
l = 2  e_2 = 5.74154345
l = 2  e_3 = 13.6807267
l = 2  e_4 = 32.7212153
l = 2  e_5 = 80.2476001
l = 2  e_6 = 197.280446
l = 2  e_7 = 484.195323
l = 2  e_8 = 1222.12924
l = 3  e_0 = 1.8256348
l = 3  e_1 = 4.98877311
l = 3  e_2 = 11.8011229
l = 3  e_3 = 27.6683457
l = 3  e_4 = 78.2275815
l = 3  e_5 = 230.513895
l = 3  e_6 = 688.413725
l = 4  e_0 = 4.50268203
l = 4  e_1 = 12.2695018
l = 4  e_2 = 30.8350109
l = 4  e_3 = 122.808819
l = 4  e_4 = 451.399718
l = 5  e_0 = 9.03671992
l = 5  e_1 = 25.7318364
l = 5  e_2 = 385.778989
l = 6  e_0 = 19.8430153
l = 0  occ = 2 + 0
l = 1  occ = 0 + 1.333
l = 2  occ = 0 + 0
l = 3  occ = 0 + 0
E1 = -102.6352375748119  E_coul = 28.33775229839718
cycle= 9 E= -74.2974852764147  delta_E= 7.11e-14  |g|=    0  |ddm|= 8.44e-10
    CPU time for cycle= 9      1.89 sec, wall time      0.47 sec
diis-norm(errvec)=1.01913e-09
Linear dependence found in DIIS error vectors.
diis-c [-9.31621480e-16  3.58475807e-01 -3.96197109e-07  2.24194669e-06
  4.16353892e-06  6.97246960e-04 -3.41007163e-02  3.16660406e-01
  3.58261247e-01]
l = 0  e_0 = -20.8146614
l = 0  e_1 = -1.31214106
l = 0  e_2 = 0.102363223
l = 0  e_3 = 0.573621196
l = 0  e_4 = 2.0228934
l = 0  e_5 = 6.04204473
l = 0  e_6 = 17.106465
l = 0  e_7 = 45.5563903
l = 0  e_8 = 111.789676
l = 0  e_9 = 255.981815
l = 0  e_10 = 567.484647
l = 0  e_11 = 1269.18455
l = 0  e_12 = 4066.47935
l = 1  e_0 = -0.426531989
l = 1  e_1 = 0.256071
l = 1  e_2 = 1.01650253
l = 1  e_3 = 2.86645575
l = 1  e_4 = 7.26338133
l = 1  e_5 = 17.9561216
l = 1  e_6 = 44.7114266
l = 1  e_7 = 110.070248
l = 1  e_8 = 264.387543
l = 1  e_9 = 631.912832
l = 1  e_10 = 1546.29415
l = 2  e_0 = 0.800212244
l = 2  e_1 = 2.32738384
l = 2  e_2 = 5.74154345
l = 2  e_3 = 13.6807267
l = 2  e_4 = 32.7212153
l = 2  e_5 = 80.2476001
l = 2  e_6 = 197.280446
l = 2  e_7 = 484.195323
l = 2  e_8 = 1222.12924
l = 3  e_0 = 1.8256348
l = 3  e_1 = 4.98877311
l = 3  e_2 = 11.8011229
l = 3  e_3 = 27.6683457
l = 3  e_4 = 78.2275815
l = 3  e_5 = 230.513895
l = 3  e_6 = 688.413725
l = 4  e_0 = 4.50268203
l = 4  e_1 = 12.2695018
l = 4  e_2 = 30.8350109
l = 4  e_3 = 122.808819
l = 4  e_4 = 451.399718
l = 5  e_0 = 9.03671992
l = 5  e_1 = 25.7318364
l = 5  e_2 = 385.778989
l = 6  e_0 = 19.8430153
l = 0  occ = 2 + 0
l = 1  occ = 0 + 1.333
l = 2  occ = 0 + 0
l = 3  occ = 0 + 0
E1 = -102.63523757388376  E_coul = 28.337752297469024
cycle= 10 E= -74.2974852764147  delta_E= -1.42e-14  |g|=    0  |ddm|= 3.94e-10
    CPU time for cycle= 10      1.89 sec, wall time      0.47 sec
diis-norm(errvec)=8.97467e-10
Linear dependence found in DIIS error vectors.
diis-c [-1.74000049e-16  2.56338156e-01  2.56395021e-01 -5.28888741e-06
  1.79933168e-04 -8.87332935e-04 -1.08730158e-02  2.42668434e-01
  2.56184093e-01]
l = 0  e_0 = -20.8146614
l = 0  e_1 = -1.31214106
l = 0  e_2 = 0.102363223
l = 0  e_3 = 0.573621196
l = 0  e_4 = 2.0228934
l = 0  e_5 = 6.04204473
l = 0  e_6 = 17.106465
l = 0  e_7 = 45.5563903
l = 0  e_8 = 111.789676
l = 0  e_9 = 255.981815
l = 0  e_10 = 567.484647
l = 0  e_11 = 1269.18455
l = 0  e_12 = 4066.47935
l = 1  e_0 = -0.426531989
l = 1  e_1 = 0.256071
l = 1  e_2 = 1.01650253
l = 1  e_3 = 2.86645575
l = 1  e_4 = 7.26338133
l = 1  e_5 = 17.9561216
l = 1  e_6 = 44.7114266
l = 1  e_7 = 110.070248
l = 1  e_8 = 264.387543
l = 1  e_9 = 631.912832
l = 1  e_10 = 1546.29415
l = 2  e_0 = 0.800212244
l = 2  e_1 = 2.32738384
l = 2  e_2 = 5.74154345
l = 2  e_3 = 13.6807267
l = 2  e_4 = 32.7212153
l = 2  e_5 = 80.2476001
l = 2  e_6 = 197.280446
l = 2  e_7 = 484.195323
l = 2  e_8 = 1222.12924
l = 3  e_0 = 1.8256348
l = 3  e_1 = 4.98877311
l = 3  e_2 = 11.8011229
l = 3  e_3 = 27.6683457
l = 3  e_4 = 78.2275815
l = 3  e_5 = 230.513895
l = 3  e_6 = 688.413725
l = 4  e_0 = 4.50268203
l = 4  e_1 = 12.2695018
l = 4  e_2 = 30.8350109
l = 4  e_3 = 122.808819
l = 4  e_4 = 451.399718
l = 5  e_0 = 9.03671992
l = 5  e_1 = 25.7318364
l = 5  e_2 = 385.778989
l = 6  e_0 = 19.8430153
l = 0  occ = 2 + 0
l = 1  occ = 0 + 1.333
l = 2  occ = 0 + 0
l = 3  occ = 0 + 0
E1 = -102.63523757399354  E_coul = 28.3377522975789
cycle= 11 E= -74.2974852764146  delta_E= 9.95e-14  |g|=    0  |ddm|= 3.05e-10
    CPU time for cycle= 11      1.88 sec, wall time      0.47 sec
diis-norm(errvec)=1.11968e-09
Linear dependence found in DIIS error vectors.
diis-c [-8.33165349e-16  2.03689396e-01  2.03716362e-01  2.03679897e-01
  3.43793018e-05 -5.73909443e-05 -9.05635183e-03  1.94428173e-01
  2.03565536e-01]
l = 0  e_0 = -20.8146614
l = 0  e_1 = -1.31214106
l = 0  e_2 = 0.102363224
l = 0  e_3 = 0.573621197
l = 0  e_4 = 2.0228934
l = 0  e_5 = 6.04204473
l = 0  e_6 = 17.106465
l = 0  e_7 = 45.5563903
l = 0  e_8 = 111.789676
l = 0  e_9 = 255.981815
l = 0  e_10 = 567.484647
l = 0  e_11 = 1269.18455
l = 0  e_12 = 4066.47935
l = 1  e_0 = -0.426531988
l = 1  e_1 = 0.256071
l = 1  e_2 = 1.01650253
l = 1  e_3 = 2.86645575
l = 1  e_4 = 7.26338133
l = 1  e_5 = 17.9561216
l = 1  e_6 = 44.7114266
l = 1  e_7 = 110.070248
l = 1  e_8 = 264.387543
l = 1  e_9 = 631.912832
l = 1  e_10 = 1546.29415
l = 2  e_0 = 0.800212245
l = 2  e_1 = 2.32738384
l = 2  e_2 = 5.74154345
l = 2  e_3 = 13.6807267
l = 2  e_4 = 32.7212153
l = 2  e_5 = 80.2476001
l = 2  e_6 = 197.280446
l = 2  e_7 = 484.195323
l = 2  e_8 = 1222.12924
l = 3  e_0 = 1.8256348
l = 3  e_1 = 4.98877311
l = 3  e_2 = 11.8011229
l = 3  e_3 = 27.6683457
l = 3  e_4 = 78.2275815
l = 3  e_5 = 230.513895
l = 3  e_6 = 688.413725
l = 4  e_0 = 4.50268203
l = 4  e_1 = 12.2695018
l = 4  e_2 = 30.8350109
l = 4  e_3 = 122.808819
l = 4  e_4 = 451.399718
l = 5  e_0 = 9.03671992
l = 5  e_1 = 25.7318364
l = 5  e_2 = 385.778989
l = 6  e_0 = 19.8430153
l = 0  occ = 2 + 0
l = 1  occ = 0 + 1.333
l = 2  occ = 0 + 0
l = 3  occ = 0 + 0
E1 = -102.63523757194878  E_coul = 28.337752295533903
cycle= 12 E= -74.2974852764149  delta_E= -2.42e-13  |g|=    0  |ddm|= 6.99e-10
    CPU time for cycle= 12      1.89 sec, wall time      0.47 sec
diis-norm(errvec)=2.10278e-09
Linear dependence found in DIIS error vectors.
diis-c [-8.32373813e-16  1.67480017e-01  1.67427963e-01  1.67409498e-01
  1.67242172e-01  9.07833091e-05 -2.73708150e-03  1.65660478e-01
  1.67426170e-01]
l = 0  e_0 = -20.8146614
l = 0  e_1 = -1.31214106
l = 0  e_2 = 0.102363224
l = 0  e_3 = 0.573621197
l = 0  e_4 = 2.0228934
l = 0  e_5 = 6.04204473
l = 0  e_6 = 17.106465
l = 0  e_7 = 45.5563903
l = 0  e_8 = 111.789676
l = 0  e_9 = 255.981815
l = 0  e_10 = 567.484647
l = 0  e_11 = 1269.18455
l = 0  e_12 = 4066.47935
l = 1  e_0 = -0.426531988
l = 1  e_1 = 0.256071
l = 1  e_2 = 1.01650253
l = 1  e_3 = 2.86645575
l = 1  e_4 = 7.26338133
l = 1  e_5 = 17.9561216
l = 1  e_6 = 44.7114266
l = 1  e_7 = 110.070248
l = 1  e_8 = 264.387543
l = 1  e_9 = 631.912832
l = 1  e_10 = 1546.29415
l = 2  e_0 = 0.800212245
l = 2  e_1 = 2.32738384
l = 2  e_2 = 5.74154345
l = 2  e_3 = 13.6807267
l = 2  e_4 = 32.7212153
l = 2  e_5 = 80.2476001
l = 2  e_6 = 197.280446
l = 2  e_7 = 484.195323
l = 2  e_8 = 1222.12924
l = 3  e_0 = 1.8256348
l = 3  e_1 = 4.98877311
l = 3  e_2 = 11.8011229
l = 3  e_3 = 27.6683457
l = 3  e_4 = 78.2275815
l = 3  e_5 = 230.513895
l = 3  e_6 = 688.413725
l = 4  e_0 = 4.50268203
l = 4  e_1 = 12.2695018
l = 4  e_2 = 30.8350109
l = 4  e_3 = 122.808819
l = 4  e_4 = 451.399718
l = 5  e_0 = 9.03671992
l = 5  e_1 = 25.7318364
l = 5  e_2 = 385.778989
l = 6  e_0 = 19.8430153
l = 0  occ = 2 + 0
l = 1  occ = 0 + 1.333
l = 2  occ = 0 + 0
l = 3  occ = 0 + 0
E1 = -102.63523757267414  E_coul = 28.3377522962595
cycle= 13 E= -74.2974852764146  delta_E= 2.27e-13  |g|=    0  |ddm|= 9.31e-10
    CPU time for cycle= 13      1.88 sec, wall time      0.47 sec
diis-norm(errvec)=1.74238e-09
Linear dependence found in DIIS error vectors.
diis-c [-2.79127659e-17  1.43437683e-01  1.43392563e-01  1.43378813e-01
  1.43238995e-01  1.43305802e-01 -2.11534745e-03  1.41966252e-01
  1.43395240e-01]
l = 0  e_0 = -20.8146614
l = 0  e_1 = -1.31214106
l = 0  e_2 = 0.102363223
l = 0  e_3 = 0.573621196
l = 0  e_4 = 2.0228934
l = 0  e_5 = 6.04204473
l = 0  e_6 = 17.106465
l = 0  e_7 = 45.5563903
l = 0  e_8 = 111.789676
l = 0  e_9 = 255.981815
l = 0  e_10 = 567.484647
l = 0  e_11 = 1269.18455
l = 0  e_12 = 4066.47935
l = 1  e_0 = -0.426531989
l = 1  e_1 = 0.256071
l = 1  e_2 = 1.01650253
l = 1  e_3 = 2.86645575
l = 1  e_4 = 7.26338133
l = 1  e_5 = 17.9561216
l = 1  e_6 = 44.7114266
l = 1  e_7 = 110.070248
l = 1  e_8 = 264.387543
l = 1  e_9 = 631.912832
l = 1  e_10 = 1546.29415
l = 2  e_0 = 0.800212244
l = 2  e_1 = 2.32738384
l = 2  e_2 = 5.74154345
l = 2  e_3 = 13.6807267
l = 2  e_4 = 32.7212153
l = 2  e_5 = 80.2476001
l = 2  e_6 = 197.280446
l = 2  e_7 = 484.195323
l = 2  e_8 = 1222.12924
l = 3  e_0 = 1.8256348
l = 3  e_1 = 4.98877311
l = 3  e_2 = 11.8011229
l = 3  e_3 = 27.6683457
l = 3  e_4 = 78.2275815
l = 3  e_5 = 230.513895
l = 3  e_6 = 688.413725
l = 4  e_0 = 4.50268203
l = 4  e_1 = 12.2695018
l = 4  e_2 = 30.8350109
l = 4  e_3 = 122.808819
l = 4  e_4 = 451.399718
l = 5  e_0 = 9.03671992
l = 5  e_1 = 25.7318364
l = 5  e_2 = 385.778989
l = 6  e_0 = 19.8430153
l = 0  occ = 2 + 0
l = 1  occ = 0 + 1.333
l = 2  occ = 0 + 0
l = 3  occ = 0 + 0
E1 = -102.63523757350254  E_coul = 28.33775229708771
cycle= 14 E= -74.2974852764148  delta_E= -1.71e-13  |g|=    0  |ddm|= 4.69e-10
    CPU time for cycle= 14      1.89 sec, wall time      0.48 sec
diis-norm(errvec)=1.3076e-09
Linear dependence found in DIIS error vectors.
diis-c [-2.89052492e-16  1.25000000e-01  1.25000000e-01  1.25000000e-01
  1.25000000e-01  1.25000000e-01  1.25000000e-01  1.25000000e-01
  1.25000000e-01]
l = 0  e_0 = -20.8146614
l = 0  e_1 = -1.31214106
l = 0  e_2 = 0.102363223
l = 0  e_3 = 0.573621196
l = 0  e_4 = 2.0228934
l = 0  e_5 = 6.04204473
l = 0  e_6 = 17.106465
l = 0  e_7 = 45.5563903
l = 0  e_8 = 111.789676
l = 0  e_9 = 255.981815
l = 0  e_10 = 567.484647
l = 0  e_11 = 1269.18455
l = 0  e_12 = 4066.47935
l = 1  e_0 = -0.426531989
l = 1  e_1 = 0.256071
l = 1  e_2 = 1.01650253
l = 1  e_3 = 2.86645575
l = 1  e_4 = 7.26338133
l = 1  e_5 = 17.9561216
l = 1  e_6 = 44.7114266
l = 1  e_7 = 110.070248
l = 1  e_8 = 264.387543
l = 1  e_9 = 631.912832
l = 1  e_10 = 1546.29415
l = 2  e_0 = 0.800212244
l = 2  e_1 = 2.32738384
l = 2  e_2 = 5.74154345
l = 2  e_3 = 13.6807267
l = 2  e_4 = 32.7212153
l = 2  e_5 = 80.2476001
l = 2  e_6 = 197.280446
l = 2  e_7 = 484.195323
l = 2  e_8 = 1222.12924
l = 3  e_0 = 1.8256348
l = 3  e_1 = 4.98877311
l = 3  e_2 = 11.8011229
l = 3  e_3 = 27.6683457
l = 3  e_4 = 78.2275815
l = 3  e_5 = 230.513895
l = 3  e_6 = 688.413725
l = 4  e_0 = 4.50268203
l = 4  e_1 = 12.2695018
l = 4  e_2 = 30.8350109
l = 4  e_3 = 122.808819
l = 4  e_4 = 451.399718
l = 5  e_0 = 9.03671992
l = 5  e_1 = 25.7318364
l = 5  e_2 = 385.778989
l = 6  e_0 = 19.8430153
l = 0  occ = 2 + 0
l = 1  occ = 0 + 1.333
l = 2  occ = 0 + 0
l = 3  occ = 0 + 0
E1 = -102.63523757576476  E_coul = 28.337752299350147
cycle= 15 E= -74.2974852764146  delta_E= 1.99e-13  |g|=    0  |ddm|= 4.84e-10
    CPU time for cycle= 15      1.88 sec, wall time      0.47 sec
diis-norm(errvec)=9.72792e-10
Linear dependence found in DIIS error vectors.
diis-c [-2.89052492e-16  1.25000000e-01  1.25000000e-01  1.25000000e-01
  1.25000000e-01  1.25000000e-01  1.25000000e-01  1.25000000e-01
  1.25000000e-01]
l = 0  e_0 = -20.8146614
l = 0  e_1 = -1.31214106
l = 0  e_2 = 0.102363223
l = 0  e_3 = 0.573621196
l = 0  e_4 = 2.0228934
l = 0  e_5 = 6.04204473
l = 0  e_6 = 17.106465
l = 0  e_7 = 45.5563903
l = 0  e_8 = 111.789676
l = 0  e_9 = 255.981815
l = 0  e_10 = 567.484647
l = 0  e_11 = 1269.18455
l = 0  e_12 = 4066.47935
l = 1  e_0 = -0.426531989
l = 1  e_1 = 0.256071
l = 1  e_2 = 1.01650253
l = 1  e_3 = 2.86645575
l = 1  e_4 = 7.26338133
l = 1  e_5 = 17.9561216
l = 1  e_6 = 44.7114266
l = 1  e_7 = 110.070248
l = 1  e_8 = 264.387543
l = 1  e_9 = 631.912832
l = 1  e_10 = 1546.29415
l = 2  e_0 = 0.800212244
l = 2  e_1 = 2.32738384
l = 2  e_2 = 5.74154344
l = 2  e_3 = 13.6807267
l = 2  e_4 = 32.7212153
l = 2  e_5 = 80.2476001
l = 2  e_6 = 197.280446
l = 2  e_7 = 484.195323
l = 2  e_8 = 1222.12924
l = 3  e_0 = 1.8256348
l = 3  e_1 = 4.98877311
l = 3  e_2 = 11.8011229
l = 3  e_3 = 27.6683457
l = 3  e_4 = 78.2275815
l = 3  e_5 = 230.513895
l = 3  e_6 = 688.413725
l = 4  e_0 = 4.50268203
l = 4  e_1 = 12.2695018
l = 4  e_2 = 30.8350109
l = 4  e_3 = 122.808819
l = 4  e_4 = 451.399718
l = 5  e_0 = 9.03671992
l = 5  e_1 = 25.7318364
l = 5  e_2 = 385.778989
l = 6  e_0 = 19.8430153
l = 0  occ = 2 + 0
l = 1  occ = 0 + 1.333
l = 2  occ = 0 + 0
l = 3  occ = 0 + 0
E1 = -102.63523757575229  E_coul = 28.337752299337595
cycle= 16 E= -74.2974852764147  delta_E= -7.11e-14  |g|=    0  |ddm|= 7.65e-10
    CPU time for cycle= 16      1.89 sec, wall time      0.47 sec
diis-norm(errvec)=3.71855e-10
Linear dependence found in DIIS error vectors.
diis-c [-2.89052492e-16  1.25000000e-01  1.25000000e-01  1.25000000e-01
  1.25000000e-01  1.25000000e-01  1.25000000e-01  1.25000000e-01
  1.25000000e-01]
l = 0  e_0 = -20.8146614
l = 0  e_1 = -1.31214106
l = 0  e_2 = 0.102363223
l = 0  e_3 = 0.573621196
l = 0  e_4 = 2.0228934
l = 0  e_5 = 6.04204473
l = 0  e_6 = 17.106465
l = 0  e_7 = 45.5563903
l = 0  e_8 = 111.789676
l = 0  e_9 = 255.981815
l = 0  e_10 = 567.484647
l = 0  e_11 = 1269.18455
l = 0  e_12 = 4066.47935
l = 1  e_0 = -0.426531989
l = 1  e_1 = 0.256071
l = 1  e_2 = 1.01650253
l = 1  e_3 = 2.86645575
l = 1  e_4 = 7.26338133
l = 1  e_5 = 17.9561216
l = 1  e_6 = 44.7114266
l = 1  e_7 = 110.070248
l = 1  e_8 = 264.387543
l = 1  e_9 = 631.912832
l = 1  e_10 = 1546.29415
l = 2  e_0 = 0.800212244
l = 2  e_1 = 2.32738384
l = 2  e_2 = 5.74154344
l = 2  e_3 = 13.6807267
l = 2  e_4 = 32.7212153
l = 2  e_5 = 80.2476001
l = 2  e_6 = 197.280446
l = 2  e_7 = 484.195323
l = 2  e_8 = 1222.12924
l = 3  e_0 = 1.8256348
l = 3  e_1 = 4.98877311
l = 3  e_2 = 11.8011229
l = 3  e_3 = 27.6683457
l = 3  e_4 = 78.2275815
l = 3  e_5 = 230.513895
l = 3  e_6 = 688.413725
l = 4  e_0 = 4.50268203
l = 4  e_1 = 12.2695018
l = 4  e_2 = 30.8350109
l = 4  e_3 = 122.808819
l = 4  e_4 = 451.399718
l = 5  e_0 = 9.03671992
l = 5  e_1 = 25.7318364
l = 5  e_2 = 385.778989
l = 6  e_0 = 19.8430153
l = 0  occ = 2 + 0
l = 1  occ = 0 + 1.333
l = 2  occ = 0 + 0
l = 3  occ = 0 + 0
E1 = -102.63523757563861  E_coul = 28.337752299223904
cycle= 17 E= -74.2974852764147  delta_E= -1.42e-14  |g|=    0  |ddm|= 4.75e-11
    CPU time for cycle= 17      1.88 sec, wall time      0.47 sec
l = 0  e_0 = -20.8146614
l = 0  e_1 = -1.31214106
l = 0  e_2 = 0.102363223
l = 0  e_3 = 0.573621196
l = 0  e_4 = 2.0228934
l = 0  e_5 = 6.04204473
l = 0  e_6 = 17.106465
l = 0  e_7 = 45.5563903
l = 0  e_8 = 111.789676
l = 0  e_9 = 255.981815
l = 0  e_10 = 567.484647
l = 0  e_11 = 1269.18455
l = 0  e_12 = 4066.47935
l = 1  e_0 = -0.426531989
l = 1  e_1 = 0.256071
l = 1  e_2 = 1.01650253
l = 1  e_3 = 2.86645575
l = 1  e_4 = 7.26338133
l = 1  e_5 = 17.9561216
l = 1  e_6 = 44.7114266
l = 1  e_7 = 110.070248
l = 1  e_8 = 264.387543
l = 1  e_9 = 631.912832
l = 1  e_10 = 1546.29415
l = 2  e_0 = 0.800212244
l = 2  e_1 = 2.32738384
l = 2  e_2 = 5.74154345
l = 2  e_3 = 13.6807267
l = 2  e_4 = 32.7212153
l = 2  e_5 = 80.2476001
l = 2  e_6 = 197.280446
l = 2  e_7 = 484.195323
l = 2  e_8 = 1222.12924
l = 3  e_0 = 1.8256348
l = 3  e_1 = 4.98877311
l = 3  e_2 = 11.8011229
l = 3  e_3 = 27.6683457
l = 3  e_4 = 78.2275815
l = 3  e_5 = 230.513895
l = 3  e_6 = 688.413725
l = 4  e_0 = 4.50268203
l = 4  e_1 = 12.2695018
l = 4  e_2 = 30.8350109
l = 4  e_3 = 122.808819
l = 4  e_4 = 451.399718
l = 5  e_0 = 9.03671992
l = 5  e_1 = 25.7318364
l = 5  e_2 = 385.778989
l = 6  e_0 = 19.8430153
l = 0  occ = 2 + 0
l = 1  occ = 0 + 1.333
l = 2  occ = 0 + 0
l = 3  occ = 0 + 0
E1 = -102.63523757473287  E_coul = 28.337752298318083
Extra cycle  E= -74.2974852764148  delta_E= -8.53e-14  |g|=    0  |ddm|= 4.75e-11
    CPU time for scf_cycle     60.26 sec, wall time     15.99 sec
    CPU time for SCF     60.26 sec, wall time     15.99 sec
Atomic HF for atom  O  converged. SCF energy = -74.2974852764148

Atom O, E = -74.2974852764
Nelec from initial guess = (np.float64(3.9999999999999916), np.float64(3.9999999999999916))
E1 = -102.63523757473288  Ecoul = 28.33775229831808
init E= -74.2974852764148
    CPU time for initialize scf     87.56 sec, wall time     23.53 sec
alpha HOMO (B3u) = -0.426531989013688  LUMO (Ag) = 0.102363223471753
alpha irrep_nelec = [2, 0, 0, 0, 0, 1, 1, 1]
beta  irrep_nelec = [2, 0, 0, 0, 0, 0, 0, 1]
alpha-Ag nocc = 2  HOMO = -1.31214106460611  LUMO = 0.102363223471753
   mo_energy = [-2.08146614e+01 -1.31214106e+00  1.02363223e-01  5.73621196e-01
  8.00212244e-01  8.00212244e-01  2.02289340e+00  2.32738384e+00
  2.32738384e+00  4.50268203e+00  4.50268203e+00  4.50268203e+00
  5.74154344e+00  5.74154344e+00  6.04204473e+00  1.22695018e+01
  1.22695018e+01  1.22695018e+01  1.36807267e+01  1.36807267e+01
  1.71064650e+01  1.98430153e+01  1.98430153e+01  1.98430153e+01
  1.98430153e+01  3.08350109e+01  3.08350109e+01  3.08350109e+01
  3.27212153e+01  3.27212153e+01  4.55563903e+01  8.02476001e+01
  8.02476001e+01  1.11789676e+02  1.22808819e+02  1.22808819e+02
  1.22808819e+02  1.97280446e+02  1.97280446e+02  2.55981815e+02
  4.51399718e+02  4.51399718e+02  4.51399718e+02  4.84195323e+02
  4.84195323e+02  5.67484647e+02  1.22212924e+03  1.22212924e+03
  1.26918455e+03  4.06647935e+03]
alpha-B1g nocc = 0
   mo_energy = [8.00212244e-01 2.32738384e+00 4.50268203e+00 4.50268203e+00
 5.74154344e+00 1.22695018e+01 1.22695018e+01 1.36807267e+01
 1.98430153e+01 1.98430153e+01 1.98430153e+01 3.08350109e+01
 3.08350109e+01 3.27212153e+01 8.02476001e+01 1.22808819e+02
 1.22808819e+02 1.97280446e+02 4.51399718e+02 4.51399718e+02
 4.84195323e+02 1.22212924e+03]
alpha-B2g nocc = 0
   mo_energy = [8.00212244e-01 2.32738384e+00 4.50268203e+00 4.50268203e+00
 5.74154344e+00 1.22695018e+01 1.22695018e+01 1.36807267e+01
 1.98430153e+01 1.98430153e+01 1.98430153e+01 3.08350109e+01
 3.08350109e+01 3.27212153e+01 8.02476001e+01 1.22808819e+02
 1.22808819e+02 1.97280446e+02 4.51399718e+02 4.51399718e+02
 4.84195323e+02 1.22212924e+03]
alpha-B3g nocc = 0
   mo_energy = [8.00212244e-01 2.32738384e+00 4.50268203e+00 4.50268203e+00
 5.74154344e+00 1.22695018e+01 1.22695018e+01 1.36807267e+01
 1.98430153e+01 1.98430153e+01 1.98430153e+01 3.08350109e+01
 3.08350109e+01 3.27212153e+01 8.02476001e+01 1.22808819e+02
 1.22808819e+02 1.97280446e+02 4.51399718e+02 4.51399718e+02
 4.84195323e+02 1.22212924e+03]
alpha-Au nocc = 0
   mo_energy = [  1.8256348    4.98877311   9.03671992   9.03671992  11.80112285
  25.73183641  25.73183641  27.66834567  78.22758146 230.51389517
 385.77898931 385.77898931 688.4137251 ]
alpha-B1u nocc = 1  HOMO = -0.426531989013814  LUMO = 0.256071000152186
   mo_energy = [-4.26531989e-01  2.56071000e-01  1.01650253e+00  1.82563480e+00
  1.82563480e+00  2.86645575e+00  4.98877311e+00  4.98877311e+00
  7.26338133e+00  9.03671992e+00  9.03671992e+00  9.03671992e+00
  1.18011229e+01  1.18011229e+01  1.79561216e+01  2.57318364e+01
  2.57318364e+01  2.57318364e+01  2.76683457e+01  2.76683457e+01
  4.47114266e+01  7.82275815e+01  7.82275815e+01  1.10070248e+02
  2.30513895e+02  2.30513895e+02  2.64387543e+02  3.85778989e+02
  3.85778989e+02  3.85778989e+02  6.31912832e+02  6.88413725e+02
  6.88413725e+02  1.54629415e+03]
alpha-B2u nocc = 1  HOMO = -0.426531989013746  LUMO = 0.256071000152286
   mo_energy = [-4.26531989e-01  2.56071000e-01  1.01650253e+00  1.82563480e+00
  1.82563480e+00  2.86645575e+00  4.98877311e+00  4.98877311e+00
  7.26338133e+00  9.03671992e+00  9.03671992e+00  9.03671992e+00
  1.18011229e+01  1.18011229e+01  1.79561216e+01  2.57318364e+01
  2.57318364e+01  2.57318364e+01  2.76683457e+01  2.76683457e+01
  4.47114266e+01  7.82275815e+01  7.82275815e+01  1.10070248e+02
  2.30513895e+02  2.30513895e+02  2.64387543e+02  3.85778989e+02
  3.85778989e+02  3.85778989e+02  6.31912832e+02  6.88413725e+02
  6.88413725e+02  1.54629415e+03]
alpha-B3u nocc = 1  HOMO = -0.426531989013688  LUMO = 0.256071000152126
   mo_energy = [-4.26531989e-01  2.56071000e-01  1.01650253e+00  1.82563480e+00
  1.82563480e+00  2.86645575e+00  4.98877311e+00  4.98877311e+00
  7.26338133e+00  9.03671992e+00  9.03671992e+00  9.03671992e+00
  1.18011229e+01  1.18011229e+01  1.79561216e+01  2.57318364e+01
  2.57318364e+01  2.57318364e+01  2.76683457e+01  2.76683457e+01
  4.47114266e+01  7.82275815e+01  7.82275815e+01  1.10070248e+02
  2.30513895e+02  2.30513895e+02  2.64387543e+02  3.85778989e+02
  3.85778989e+02  3.85778989e+02  6.31912832e+02  6.88413725e+02
  6.88413725e+02  1.54629415e+03]
beta-Ag nocc = 2  HOMO = -1.31214106460611  LUMO = 0.102363223471753
   mo_energy = [-2.08146614e+01 -1.31214106e+00  1.02363223e-01  5.73621196e-01
  8.00212244e-01  8.00212244e-01  2.02289340e+00  2.32738384e+00
  2.32738384e+00  4.50268203e+00  4.50268203e+00  4.50268203e+00
  5.74154344e+00  5.74154344e+00  6.04204473e+00  1.22695018e+01
  1.22695018e+01  1.22695018e+01  1.36807267e+01  1.36807267e+01
  1.71064650e+01  1.98430153e+01  1.98430153e+01  1.98430153e+01
  1.98430153e+01  3.08350109e+01  3.08350109e+01  3.08350109e+01
  3.27212153e+01  3.27212153e+01  4.55563903e+01  8.02476001e+01
  8.02476001e+01  1.11789676e+02  1.22808819e+02  1.22808819e+02
  1.22808819e+02  1.97280446e+02  1.97280446e+02  2.55981815e+02
  4.51399718e+02  4.51399718e+02  4.51399718e+02  4.84195323e+02
  4.84195323e+02  5.67484647e+02  1.22212924e+03  1.22212924e+03
  1.26918455e+03  4.06647935e+03]
beta-B1g nocc = 0
   mo_energy = [8.00212244e-01 2.32738384e+00 4.50268203e+00 4.50268203e+00
 5.74154344e+00 1.22695018e+01 1.22695018e+01 1.36807267e+01
 1.98430153e+01 1.98430153e+01 1.98430153e+01 3.08350109e+01
 3.08350109e+01 3.27212153e+01 8.02476001e+01 1.22808819e+02
 1.22808819e+02 1.97280446e+02 4.51399718e+02 4.51399718e+02
 4.84195323e+02 1.22212924e+03]
beta-B2g nocc = 0
   mo_energy = [8.00212244e-01 2.32738384e+00 4.50268203e+00 4.50268203e+00
 5.74154344e+00 1.22695018e+01 1.22695018e+01 1.36807267e+01
 1.98430153e+01 1.98430153e+01 1.98430153e+01 3.08350109e+01
 3.08350109e+01 3.27212153e+01 8.02476001e+01 1.22808819e+02
 1.22808819e+02 1.97280446e+02 4.51399718e+02 4.51399718e+02
 4.84195323e+02 1.22212924e+03]
beta-B3g nocc = 0
   mo_energy = [8.00212244e-01 2.32738384e+00 4.50268203e+00 4.50268203e+00
 5.74154344e+00 1.22695018e+01 1.22695018e+01 1.36807267e+01
 1.98430153e+01 1.98430153e+01 1.98430153e+01 3.08350109e+01
 3.08350109e+01 3.27212153e+01 8.02476001e+01 1.22808819e+02
 1.22808819e+02 1.97280446e+02 4.51399718e+02 4.51399718e+02
 4.84195323e+02 1.22212924e+03]
beta-Au nocc = 0
   mo_energy = [  1.8256348    4.98877311   9.03671992   9.03671992  11.80112285
  25.73183641  25.73183641  27.66834567  78.22758146 230.51389517
 385.77898931 385.77898931 688.4137251 ]
beta-B1u nocc = 0
   mo_energy = [-4.26531989e-01  2.56071000e-01  1.01650253e+00  1.82563480e+00
  1.82563480e+00  2.86645575e+00  4.98877311e+00  4.98877311e+00
  7.26338133e+00  9.03671992e+00  9.03671992e+00  9.03671992e+00
  1.18011229e+01  1.18011229e+01  1.79561216e+01  2.57318364e+01
  2.57318364e+01  2.57318364e+01  2.76683457e+01  2.76683457e+01
  4.47114266e+01  7.82275815e+01  7.82275815e+01  1.10070248e+02
  2.30513895e+02  2.30513895e+02  2.64387543e+02  3.85778989e+02
  3.85778989e+02  3.85778989e+02  6.31912832e+02  6.88413725e+02
  6.88413725e+02  1.54629415e+03]
beta-B2u nocc = 0
   mo_energy = [-4.26531989e-01  2.56071000e-01  1.01650253e+00  1.82563480e+00
  1.82563480e+00  2.86645575e+00  4.98877311e+00  4.98877311e+00
  7.26338133e+00  9.03671992e+00  9.03671992e+00  9.03671992e+00
  1.18011229e+01  1.18011229e+01  1.79561216e+01  2.57318364e+01
  2.57318364e+01  2.57318364e+01  2.76683457e+01  2.76683457e+01
  4.47114266e+01  7.82275815e+01  7.82275815e+01  1.10070248e+02
  2.30513895e+02  2.30513895e+02  2.64387543e+02  3.85778989e+02
  3.85778989e+02  3.85778989e+02  6.31912832e+02  6.88413725e+02
  6.88413725e+02  1.54629415e+03]
beta-B3u nocc = 1  HOMO = -0.426531989013688  LUMO = 0.256071000152126
   mo_energy = [-4.26531989e-01  2.56071000e-01  1.01650253e+00  1.82563480e+00
  1.82563480e+00  2.86645575e+00  4.98877311e+00  4.98877311e+00
  7.26338133e+00  9.03671992e+00  9.03671992e+00  9.03671992e+00
  1.18011229e+01  1.18011229e+01  1.79561216e+01  2.57318364e+01
  2.57318364e+01  2.57318364e+01  2.76683457e+01  2.76683457e+01
  4.47114266e+01  7.82275815e+01  7.82275815e+01  1.10070248e+02
  2.30513895e+02  2.30513895e+02  2.64387543e+02  3.85778989e+02
  3.85778989e+02  3.85778989e+02  6.31912832e+02  6.88413725e+02
  6.88413725e+02  1.54629415e+03]
multiplicity <S^2> = 2  2S+1 = 3
E1 = -102.6352375751836  Ecoul = 27.839743506684165
cycle= 1 E= -74.7954940684994  delta_E= -0.498  |g|= 0.208  |ddm|= 0.606
    CPU time for cycle= 1      3.87 sec, wall time      0.98 sec
diis-norm(errvec)=0.294285
diis-c [-0.08660379  1.        ]
alpha HOMO (B3u) = -0.66010567802906  LUMO (Ag) = 0.0974817918500086
alpha irrep_nelec = [2, 0, 0, 0, 0, 1, 1, 1]
beta  irrep_nelec = [2, 0, 0, 0, 0, 0, 0, 1]
alpha-Ag nocc = 2  HOMO = -1.46591138681314  LUMO = 0.0974817918500086
   mo_energy = [-2.08470619e+01 -1.46591139e+00  9.74817919e-02  5.57050291e-01
  7.62423525e-01  7.93445278e-01  1.99537543e+00  2.25295317e+00
  2.31092656e+00  4.45585772e+00  4.49878114e+00  4.51328094e+00
  5.65844106e+00  5.73385652e+00  6.01142912e+00  1.21952316e+01
  1.22632337e+01  1.22859980e+01  1.36045486e+01  1.36878167e+01
  1.70825917e+01  1.97710728e+01  1.98250399e+01  1.98575842e+01
  1.98684600e+01  3.07563899e+01  3.08316145e+01  3.08567441e+01
  3.26612068e+01  3.27381402e+01  4.55425798e+01  8.02073551e+01
  8.02659763e+01  1.11782897e+02  1.22761088e+02  1.22810459e+02
  1.22826924e+02  1.97256840e+02  1.97294901e+02  2.55978767e+02
  4.51380209e+02  4.51402425e+02  4.51409831e+02  4.84182962e+02
  4.84204393e+02  5.67483384e+02  1.22212377e+03  1.22213373e+03
  1.26918409e+03  4.06647922e+03]
alpha-B1g nocc = 0
   mo_energy = [7.85090691e-01 2.29578056e+00 4.48079967e+00 4.50964574e+00
 5.71453161e+00 1.22348526e+01 1.22803015e+01 1.36667246e+01
 1.98007128e+01 1.98440089e+01 1.98657397e+01 3.08002424e+01
 3.08504590e+01 3.27188006e+01 8.02513008e+01 1.22789884e+02
 1.22822807e+02 1.97285385e+02 4.51393168e+02 4.51407980e+02
 4.84199035e+02 1.22213124e+03]
alpha-B2g nocc = 0
   mo_energy = [7.85090691e-01 2.29578056e+00 4.48079967e+00 4.50964574e+00
 5.71453161e+00 1.22348526e+01 1.22803015e+01 1.36667246e+01
 1.98007128e+01 1.98440089e+01 1.98657397e+01 3.08002424e+01
 3.08504590e+01 3.27188006e+01 8.02513008e+01 1.22789884e+02
 1.22822807e+02 1.97285385e+02 4.51393168e+02 4.51407980e+02
 4.84199035e+02 1.22213124e+03]
alpha-B3g nocc = 0
   mo_energy = [7.62423525e-01 2.25295317e+00 4.45585772e+00 4.49878114e+00
 5.65844106e+00 1.21952316e+01 1.22632337e+01 1.36045486e+01
 1.97710728e+01 1.98250399e+01 1.98575842e+01 3.07563899e+01
 3.08316145e+01 3.26612068e+01 8.02073551e+01 1.22761088e+02
 1.22810459e+02 1.97256840e+02 4.51380209e+02 4.51402425e+02
 4.84182962e+02 1.22212377e+03]
alpha-Au nocc = 0
   mo_energy = [  1.8129561    4.96264853   9.00602501   9.04216933  11.77165644
  25.68971862  25.73998598  27.64479624  78.21492627 230.50949845
 385.76626827 385.78571404 688.41257416]
alpha-B1u nocc = 1  HOMO = -0.738081930542364  LUMO = 0.238959183704304
   mo_energy = [-7.38081931e-01  2.38959184e-01  9.73596320e-01  1.79276587e+00
  1.82523151e+00  2.80974156e+00  4.92498597e+00  4.98538735e+00
  7.20522647e+00  8.97912251e+00  9.02707038e+00  9.05125581e+00
  1.17220694e+01  1.18015172e+01  1.79056821e+01  2.56521244e+01
  2.57190213e+01  2.57525787e+01  2.75939329e+01  2.76753718e+01
  4.46746049e+01  7.81769430e+01  7.82377206e+01  1.10046997e+02
  2.30487829e+02  2.30522498e+02  2.64374290e+02  3.85751685e+02
  3.85777611e+02  3.85790576e+02  6.31906004e+02  6.88402796e+02
  6.88418442e+02  1.54629115e+03]
alpha-B2u nocc = 1  HOMO = -0.738081930542325  LUMO = 0.238959183704118
   mo_energy = [-7.38081931e-01  2.38959184e-01  9.73596320e-01  1.79276587e+00
  1.82523151e+00  2.80974156e+00  4.92498597e+00  4.98538735e+00
  7.20522647e+00  8.97912251e+00  9.02707038e+00  9.05125581e+00
  1.17220694e+01  1.18015172e+01  1.79056821e+01  2.56521244e+01
  2.57190213e+01  2.57525787e+01  2.75939329e+01  2.76753718e+01
  4.46746049e+01  7.81769430e+01  7.82377206e+01  1.10046997e+02
  2.30487829e+02  2.30522498e+02  2.64374290e+02  3.85751685e+02
  3.85777611e+02  3.85790576e+02  6.31906004e+02  6.88402796e+02
  6.88418442e+02  1.54629115e+03]
alpha-B3u nocc = 1  HOMO = -0.66010567802906  LUMO = 0.252478727402211
   mo_energy = [-6.60105678e-01  2.52478727e-01  1.00747736e+00  1.81295610e+00
  1.82935814e+00  2.86509271e+00  4.96264853e+00  4.99299830e+00
  7.27722878e+00  9.00602501e+00  9.04216933e+00  9.05428921e+00
  1.17716564e+01  1.18114919e+01  1.79823805e+01  2.56897186e+01
  2.57399860e+01  2.57567785e+01  2.76447962e+01  2.76855738e+01
  4.47410703e+01  7.82149263e+01  7.82453195e+01  1.10095446e+02
  2.30509498e+02  2.30526831e+02  2.64405129e+02  3.85766268e+02
  3.85785714e+02  3.85792196e+02  6.31923186e+02  6.88412574e+02
  6.88420398e+02  1.54629911e+03]
beta-Ag nocc = 2  HOMO = -1.16129082922114  LUMO = 0.106924551744491
   mo_energy = [-2.07824822e+01 -1.16129083e+00  1.06924552e-01  5.89401719e-01
  8.19961631e-01  8.24479702e-01  2.04971387e+00  2.36697441e+00
  2.38034737e+00  4.49406217e+00  4.52256865e+00  4.53209709e+00
  5.78512774e+00  5.78985841e+00  6.07292847e+00  1.22549714e+01
  1.23007949e+01  1.23160481e+01  1.36997282e+01  1.37315992e+01
  1.71302433e+01  1.98071734e+01  1.98513152e+01  1.98779007e+01
  1.98867794e+01  3.08129860e+01  3.08672235e+01  3.08853096e+01
  3.27198860e+01  3.27660335e+01  4.55702059e+01  8.02367473e+01
  8.02803565e+01  1.11796474e+02  1.22787328e+02  1.22826969e+02
  1.22840187e+02  1.97269037e+02  1.97301012e+02  2.55984872e+02
  4.51386458e+02  4.51406374e+02  4.51413013e+02  4.84187323e+02
  4.84206617e+02  5.67485913e+02  1.22212508e+03  1.22213440e+03
  1.26918502e+03  4.06647948e+03]
beta-B1g nocc = 0
   mo_energy = [8.20633348e-01 2.36944235e+00 4.51067314e+00 4.52971417e+00
 5.78875156e+00 1.22817126e+01 1.23122359e+01 1.37235395e+01
 1.98314256e+01 1.98668142e+01 1.98845589e+01 3.08446210e+01
 3.08807877e+01 3.27544499e+01 8.02694426e+01 1.22810449e+02
 1.22836882e+02 1.97293018e+02 4.51398075e+02 4.51411353e+02
 4.84201794e+02 1.22213207e+03]
beta-B2g nocc = 0
   mo_energy = [8.20633348e-01 2.36944235e+00 4.51067314e+00 4.52971417e+00
 5.78875156e+00 1.22817126e+01 1.23122359e+01 1.37235395e+01
 1.98314256e+01 1.98668142e+01 1.98845589e+01 3.08446210e+01
 3.08807877e+01 3.27544499e+01 8.02694426e+01 1.22810449e+02
 1.22836882e+02 1.97293018e+02 4.51398075e+02 4.51411353e+02
 4.84201794e+02 1.22213207e+03]
beta-B3g nocc = 0
   mo_energy = [8.24479702e-01 2.38034737e+00 4.49406217e+00 4.52256865e+00
 5.78512774e+00 1.22549714e+01 1.23007949e+01 1.36997282e+01
 1.98071734e+01 1.98513152e+01 1.98779007e+01 3.08129860e+01
 3.08672235e+01 3.27198860e+01 8.02367473e+01 1.22787328e+02
 1.22826969e+02 1.97269037e+02 4.51386458e+02 4.51406374e+02
 4.84187323e+02 1.22212508e+03]
beta-Au nocc = 0
   mo_energy = [  1.83819559   5.01452833   9.03580926   9.0632825   11.83040694
  25.72950659  25.76835799  27.69193347  78.24023695 230.51828975
 385.77326896 385.79070896 688.41487615]
beta-B1u nocc = 0
   mo_energy = [3.48735063e-02 3.01064024e-01 1.07160135e+00 1.82819914e+00
 1.84425313e+00 2.91463237e+00 4.99730701e+00 5.02487111e+00
 7.29474528e+00 9.01530505e+00 9.05181662e+00 9.07017489e+00
 1.18037349e+01 1.18464180e+01 1.79694819e+01 2.57004277e+01
 2.57521588e+01 2.57780852e+01 2.76593404e+01 2.77115046e+01
 4.47116528e+01 7.82119815e+01 7.82571912e+01 1.10064727e+02
 2.30499943e+02 2.30529296e+02 2.64381651e+02 3.85760190e+02
 3.85783442e+02 3.85795069e+02 6.31908708e+02 6.88405958e+02
 6.88420228e+02 1.54629201e+03]
beta-B2u nocc = 0
   mo_energy = [3.48735063e-02 3.01064024e-01 1.07160135e+00 1.82819914e+00
 1.84425313e+00 2.91463237e+00 4.99730701e+00 5.02487111e+00
 7.29474528e+00 9.01530505e+00 9.05181662e+00 9.07017489e+00
 1.18037349e+01 1.18464180e+01 1.79694819e+01 2.57004277e+01
 2.57521588e+01 2.57780852e+01 2.76593404e+01 2.77115046e+01
 4.47116528e+01 7.82119815e+01 7.82571912e+01 1.10064727e+02
 2.30499943e+02 2.30529296e+02 2.64381651e+02 3.85760190e+02
 3.85783442e+02 3.85795069e+02 6.31908708e+02 6.88405958e+02
 6.88420228e+02 1.54629201e+03]
beta-B3u nocc = 1  HOMO = -0.582393166130308  LUMO = 0.258625374157335
   mo_energy = [-5.82393166e-01  2.58625374e-01  1.02580847e+00  1.83819559e+00
  1.84627805e+00  2.89123666e+00  5.01452833e+00  5.02832139e+00
  7.30424669e+00  9.03580926e+00  9.06328250e+00  9.07247450e+00
  1.18304069e+01  1.18517569e+01  1.80044126e+01  2.57295066e+01
  2.57683580e+01  2.57813289e+01  2.76919335e+01  2.77180309e+01
  4.47551346e+01  7.82402370e+01  7.82628427e+01  1.10102661e+02
  2.30518290e+02  2.30532965e+02  2.64408273e+02  3.85773269e+02
  3.85790709e+02  3.85796523e+02  6.31924379e+02  6.88414876e+02
  6.88422012e+02  1.54629950e+03]
multiplicity <S^2> = 2.0024982  2S+1 = 3.001665
E1 = -103.37687567602404  Ecoul = 28.5608798675304
cycle= 2 E= -74.8159958084936  delta_E= -0.0205  |g|= 0.0786  |ddm|= 0.114
    CPU time for cycle= 2      3.88 sec, wall time      0.98 sec
diis-norm(errvec)=0.1112
diis-c [-0.01202249  0.06350852  0.93649148]
alpha HOMO (B3u) = -0.602990330449874  LUMO (Ag) = 0.102423531968515
alpha irrep_nelec = [2, 0, 0, 0, 0, 1, 1, 1]
beta  irrep_nelec = [2, 0, 0, 0, 0, 0, 0, 1]
alpha-Ag nocc = 2  HOMO = -1.40689191486541  LUMO = 0.102423531968515
   mo_energy = [-2.06824994e+01 -1.40689191e+00  1.02423532e-01  5.72203793e-01
  7.81125622e-01  8.10935982e-01  2.02856133e+00  2.28673972e+00
  2.34743366e+00  4.48484508e+00  4.52702616e+00  4.54130510e+00
  5.71722416e+00  5.79592984e+00  6.07771386e+00  1.22619244e+01
  1.23302259e+01  1.23531159e+01  1.36992421e+01  1.37846385e+01
  1.71904866e+01  1.98392680e+01  1.98927370e+01  1.99249998e+01
  1.99357848e+01  3.08689371e+01  3.09450583e+01  3.09705020e+01
  3.27908142e+01  3.28692369e+01  4.56836437e+01  8.03623536e+01
  8.04220955e+01  1.11943289e+02  1.22922630e+02  1.22973013e+02
  1.22989819e+02  1.97425483e+02  1.97464270e+02  2.56148889e+02
  4.51554885e+02  4.51577544e+02  4.51585098e+02  4.84357697e+02
  4.84379514e+02  5.67658153e+02  1.22230088e+03  1.22231100e+03
  1.26936093e+03  4.06665699e+03]
alpha-B1g nocc = 0
   mo_energy = [8.02906089e-01 2.33150675e+00 4.50933964e+00 4.53772381e+00
 5.77570209e+00 1.23017057e+01 1.23473868e+01 1.37629937e+01
 1.98686296e+01 1.99115403e+01 1.99330871e+01 3.09133043e+01
 3.09641376e+01 3.28495145e+01 8.04071343e+01 1.22952014e+02
 1.22985617e+02 1.97454570e+02 4.51568102e+02 4.51583210e+02
 4.84374059e+02 1.22230847e+03]
alpha-B2g nocc = 0
   mo_energy = [8.02906089e-01 2.33150675e+00 4.50933964e+00 4.53772381e+00
 5.77570209e+00 1.23017057e+01 1.23473868e+01 1.37629937e+01
 1.98686296e+01 1.99115403e+01 1.99330871e+01 3.09133043e+01
 3.09641376e+01 3.28495145e+01 8.04071343e+01 1.22952014e+02
 1.22985617e+02 1.97454570e+02 4.51568102e+02 4.51583210e+02
 4.84374059e+02 1.22230847e+03]
alpha-B3g nocc = 0
   mo_energy = [7.81125622e-01 2.28673972e+00 4.48484508e+00 4.52702616e+00
 5.71722416e+00 1.22619244e+01 1.23302259e+01 1.36992421e+01
 1.98392680e+01 1.98927370e+01 1.99249998e+01 3.08689371e+01
 3.09450583e+01 3.27908142e+01 8.03623536e+01 1.22922630e+02
 1.22973013e+02 1.97425483e+02 4.51554885e+02 4.51577544e+02
 4.84357697e+02 1.22230088e+03]
alpha-Au nocc = 0
   mo_energy = [  1.82969572   5.00450722   9.04817024   9.0838072   11.84830952
  25.78277265  25.83319713  27.76176817  78.36953542 230.68046894
 385.93982054 385.95966752 688.58902519]
alpha-B1u nocc = 1  HOMO = -0.694741518799726  LUMO = 0.244178321302636
   mo_energy = [-6.94741519e-01  2.44178321e-01  9.92825994e-01  1.81012706e+00
  1.84162059e+00  2.85268554e+00  4.96647208e+00  5.02749835e+00
  7.28078790e+00  9.02166179e+00  9.06891712e+00  9.09277010e+00
  1.17978543e+01  1.18787087e+01  1.80176306e+01  2.57450747e+01
  2.58121643e+01  2.58458325e+01  2.77100549e+01  2.77928657e+01
  4.48174302e+01  7.83308005e+01  7.83927862e+01  1.10208843e+02
  2.30658359e+02  2.30693735e+02  2.64545665e+02  3.85924938e+02
  3.85951397e+02  3.85964630e+02  6.32081629e+02  6.88579069e+02
  6.88595000e+02  1.54646845e+03]
alpha-B2u nocc = 1  HOMO = -0.69474151879968  LUMO = 0.244178321302121
   mo_energy = [-6.94741519e-01  2.44178321e-01  9.92825994e-01  1.81012706e+00
  1.84162059e+00  2.85268554e+00  4.96647208e+00  5.02749835e+00
  7.28078790e+00  9.02166179e+00  9.06891712e+00  9.09277010e+00
  1.17978543e+01  1.18787087e+01  1.80176306e+01  2.57450747e+01
  2.58121643e+01  2.58458325e+01  2.77100549e+01  2.77928657e+01
  4.48174302e+01  7.83308005e+01  7.83927862e+01  1.10208843e+02
  2.30658359e+02  2.30693735e+02  2.64545665e+02  3.85924938e+02
  3.85951397e+02  3.85964630e+02  6.32081629e+02  6.88579069e+02
  6.88595000e+02  1.54646845e+03]
alpha-B3u nocc = 1  HOMO = -0.602990330449874  LUMO = 0.257834951123694
   mo_energy = [-6.02990330e-01  2.57834951e-01  1.02855907e+00  1.82969572e+00
  1.84563511e+00  2.91077725e+00  5.00450722e+00  5.03519948e+00
  7.35522850e+00  9.04817024e+00  9.08380720e+00  9.09576261e+00
  1.18483095e+01  1.18888661e+01  1.80961499e+01  2.57827726e+01
  2.58331971e+01  2.58500470e+01  2.77617682e+01  2.78032437e+01
  4.48851931e+01  7.83695354e+01  7.84005382e+01  1.10258184e+02
  2.30680469e+02  2.30698157e+02  2.64577060e+02  3.85939821e+02
  3.85959668e+02  3.85966284e+02  6.32099103e+02  6.88589025e+02
  6.88596992e+02  1.54647654e+03]
beta-Ag nocc = 2  HOMO = -1.08316751542963  LUMO = 0.109937747223132
   mo_energy = [-2.06113206e+01 -1.08316752e+00  1.09937747e-01  6.03631635e-01
  8.31222217e-01  8.35336429e-01  2.08738390e+00  2.40319776e+00
  2.42083930e+00  4.52206509e+00  4.54867217e+00  4.55755471e+00
  5.85686637e+00  5.85882728e+00  6.14654992e+00  1.23274515e+01
  1.23701206e+01  1.23843322e+01  1.38065342e+01  1.38334736e+01
  1.72440802e+01  1.98785216e+01  1.99206063e+01  1.99459697e+01
  1.99544431e+01  3.09328470e+01  3.09848318e+01  3.10021801e+01
  3.28569714e+01  3.29005922e+01  4.57145991e+01  8.03954545e+01
  8.04382994e+01  1.11958333e+02  1.22952195e+02  1.22991677e+02
  1.23004846e+02  1.97439109e+02  1.97471066e+02  2.56155512e+02
  4.51561847e+02  4.51581939e+02  4.51588638e+02  4.84362453e+02
  4.84381874e+02  5.67660786e+02  1.22230221e+03  1.22231162e+03
  1.26936181e+03  4.06665717e+03]
beta-B1g nocc = 0
   mo_energy = [8.31563693e-01 2.40635711e+00 4.53757525e+00 4.55533382e+00
 5.85742719e+00 1.23523472e+01 1.23807799e+01 1.38266374e+01
 1.99016393e+01 1.99353913e+01 1.99523238e+01 3.09631606e+01
 3.09978421e+01 3.28896344e+01 8.04275710e+01 1.22975222e+02
 1.23001553e+02 1.97463073e+02 4.51573567e+02 4.51586963e+02
 4.84377018e+02 1.22230927e+03]
beta-B2g nocc = 0
   mo_energy = [8.31563693e-01 2.40635711e+00 4.53757525e+00 4.55533382e+00
 5.85742719e+00 1.23523472e+01 1.23807799e+01 1.38266374e+01
 1.99016393e+01 1.99353913e+01 1.99523238e+01 3.09631606e+01
 3.09978421e+01 3.28896344e+01 8.04275710e+01 1.22975222e+02
 1.23001553e+02 1.97463073e+02 4.51573567e+02 4.51586963e+02
 4.84377018e+02 1.22230927e+03]
beta-B3g nocc = 0
   mo_energy = [8.35336429e-01 2.42083930e+00 4.52206509e+00 4.54867217e+00
 5.85882728e+00 1.23274515e+01 1.23701206e+01 1.38065342e+01
 1.98785216e+01 1.99206063e+01 1.99459697e+01 3.09328470e+01
 3.09848318e+01 3.28569714e+01 8.03954545e+01 1.22952195e+02
 1.22991677e+02 1.97439109e+02 4.51561847e+02 4.51581939e+02
 4.84362453e+02 1.22230221e+03]
beta-Au nocc = 0
   mo_energy = [  1.85109647   5.05781362   9.07822332   9.10411534  11.91310707
  25.82695472  25.86411732  27.81478364  78.39809608 230.69032213
 385.94767399 385.9652898  688.59149882]
beta-B1u nocc = 0
   mo_energy = [7.99371945e-02 3.28130447e-01 1.10695107e+00 1.84175490e+00
 1.85674811e+00 2.97097370e+00 5.04278635e+00 5.06683740e+00
 7.38139759e+00 9.05890175e+00 9.09330888e+00 9.11061170e+00
 1.18890620e+01 1.19275518e+01 1.80896400e+01 2.57991575e+01
 2.58486190e+01 2.58734259e+01 2.77839088e+01 2.78333352e+01
 4.48591980e+01 7.83702898e+01 7.84147871e+01 1.10228641e+02
 2.30671929e+02 2.30701359e+02 2.64553724e+02 3.85934464e+02
 3.85957949e+02 3.85969694e+02 6.32084468e+02 6.88582505e+02
 6.88596896e+02 1.54646927e+03]
beta-B2u nocc = 0
   mo_energy = [7.99371945e-02 3.28130447e-01 1.10695107e+00 1.84175490e+00
 1.85674811e+00 2.97097370e+00 5.04278635e+00 5.06683740e+00
 7.38139759e+00 9.05890175e+00 9.09330888e+00 9.11061170e+00
 1.18890620e+01 1.19275518e+01 1.80896400e+01 2.57991575e+01
 2.58486190e+01 2.58734259e+01 2.77839088e+01 2.78333352e+01
 4.48591980e+01 7.83702898e+01 7.84147871e+01 1.10228641e+02
 2.30671929e+02 2.30701359e+02 2.64553724e+02 3.85934464e+02
 3.85957949e+02 3.85969694e+02 6.32084468e+02 6.88582505e+02
 6.88596896e+02 1.54646927e+03]
beta-B3u nocc = 1  HOMO = -0.526356612936231  LUMO = 0.263940514465006
   mo_energy = [-5.26356613e-01  2.63940514e-01  1.04713500e+00  1.85109647e+00
  1.85863004e+00  2.93781542e+00  5.05781362e+00  5.06984673e+00
  7.38409632e+00  9.07822332e+00  9.10411534e+00  9.11277923e+00
  1.19131071e+01  1.19323702e+01  1.81204218e+01  2.58269547e+01
  2.58641173e+01  2.58765304e+01  2.78147836e+01  2.78395236e+01
  4.49008729e+01  7.83980961e+01  7.84203520e+01  1.10266129e+02
  2.30690322e+02  2.30705038e+02  2.64580384e+02  3.85947674e+02
  3.85965290e+02  3.85971162e+02  6.32100248e+02  6.88591499e+02
  6.88598696e+02  1.54647682e+03]
multiplicity <S^2> = 2.0051885  2S+1 = 3.003457
E1 = -103.21378753410673  Ecoul = 28.395427327105864
cycle= 3 E= -74.8183602070009  delta_E= -0.00236  |g|= 0.0241  |ddm|= 0.058
    CPU time for cycle= 3      3.87 sec, wall time      0.97 sec
diis-norm(errvec)=0.0341425
diis-c [-6.64717493e-04 -8.24774553e-02 -1.69328043e-02  1.09941026e+00]
alpha HOMO (B3u) = -0.607882611275704  LUMO (Ag) = 0.103046586997265
alpha irrep_nelec = [2, 0, 0, 0, 0, 1, 1, 1]
beta  irrep_nelec = [2, 0, 0, 0, 0, 0, 0, 1]
alpha-Ag nocc = 2  HOMO = -1.41448742773783  LUMO = 0.103046586997265
   mo_energy = [-2.07056436e+01 -1.41448743e+00  1.03046587e-01  5.72703756e-01
  7.82623585e-01  8.12916753e-01  2.02699017e+00  2.28380577e+00
  2.34625930e+00  4.48533377e+00  4.52802517e+00  4.54253071e+00
  5.71125783e+00  5.79063362e+00  6.07227973e+00  1.22584538e+01
  1.23260965e+01  1.23488257e+01  1.36900223e+01  1.37742414e+01
  1.71792839e+01  1.98369120e+01  1.98895704e+01  1.99214261e+01
  1.99320887e+01  3.08594199e+01  3.09333530e+01  3.09581111e+01
  3.27774277e+01  3.28535400e+01  4.56669459e+01  8.03447056e+01
  8.04020656e+01  1.11922378e+02  1.22905086e+02  1.22953191e+02
  1.22969250e+02  1.97403683e+02  1.97440663e+02  2.56124515e+02
  4.51531083e+02  4.51552560e+02  4.51559722e+02  4.84331635e+02
  4.84352339e+02  5.67630511e+02  1.22227057e+03  1.22228014e+03
  1.26932999e+03  4.06662295e+03]
alpha-B1g nocc = 0
   mo_energy = [8.04690699e-01 2.32977607e+00 4.51009633e+00 4.53888991e+00
 5.77016852e+00 1.22978187e+01 1.23431339e+01 1.37528444e+01
 1.98658075e+01 1.99081288e+01 1.99294210e+01 3.09024866e+01
 3.09519161e+01 3.28343609e+01 8.03876794e+01 1.22933134e+02
 1.22965234e+02 1.97431405e+02 4.51543609e+02 4.51557932e+02
 4.84347159e+02 1.22227775e+03]
alpha-B2g nocc = 0
   mo_energy = [8.04690699e-01 2.32977607e+00 4.51009633e+00 4.53888991e+00
 5.77016852e+00 1.22978187e+01 1.23431339e+01 1.37528444e+01
 1.98658075e+01 1.99081288e+01 1.99294210e+01 3.09024866e+01
 3.09519161e+01 3.28343609e+01 8.03876794e+01 1.22933134e+02
 1.22965234e+02 1.97431405e+02 4.51543609e+02 4.51557932e+02
 4.84347159e+02 1.22227775e+03]
alpha-B3g nocc = 0
   mo_energy = [7.82623585e-01 2.28380577e+00 4.48533377e+00 4.52802517e+00
 5.71125783e+00 1.22584538e+01 1.23260965e+01 1.36900223e+01
 1.98369120e+01 1.98895704e+01 1.99214261e+01 3.08594199e+01
 3.09333530e+01 3.27774277e+01 8.03447056e+01 1.22905086e+02
 1.22953191e+02 1.97403683e+02 4.51531083e+02 4.51552560e+02
 4.84331635e+02 1.22227057e+03]
alpha-Au nocc = 0
   mo_energy = [  1.83109099   5.00313498   9.04794323   9.08366423  11.84195981
  25.77575963  25.82505481  27.74954678  78.35136375 230.65772746
 385.91750523 385.93632696 688.56126546]
alpha-B1u nocc = 1  HOMO = -0.707188771469454  LUMO = 0.243706252455171
   mo_energy = [-7.07188771e-01  2.43706252e-01  9.90670603e-01  1.81113705e+00
  1.84330623e+00  2.84814318e+00  4.96478078e+00  5.02638835e+00
  7.27308173e+00  9.02144348e+00  9.06872558e+00  9.09266575e+00
  1.17920545e+01  1.18720944e+01  1.80057668e+01  2.57389810e+01
  2.58044790e+01  2.58374253e+01  2.76992904e+01  2.77798193e+01
  4.48010852e+01  7.83142263e+01  7.83736789e+01  1.10188402e+02
  2.30636693e+02  2.30670356e+02  2.64521348e+02  3.85903396e+02
  3.85928483e+02  3.85941034e+02  6.32053524e+02  6.88551840e+02
  6.88566924e+02  1.54643678e+03]
alpha-B2u nocc = 1  HOMO = -0.707188771469496  LUMO = 0.243706252454995
   mo_energy = [-7.07188771e-01  2.43706252e-01  9.90670603e-01  1.81113705e+00
  1.84330623e+00  2.84814318e+00  4.96478078e+00  5.02638835e+00
  7.27308173e+00  9.02144348e+00  9.06872558e+00  9.09266575e+00
  1.17920545e+01  1.18720944e+01  1.80057668e+01  2.57389810e+01
  2.58044790e+01  2.58374253e+01  2.76992904e+01  2.77798193e+01
  4.48010852e+01  7.83142263e+01  7.83736789e+01  1.10188402e+02
  2.30636693e+02  2.30670356e+02  2.64521348e+02  3.85903396e+02
  3.85928483e+02  3.85941034e+02  6.32053524e+02  6.88551840e+02
  6.88566924e+02  1.54643678e+03]
alpha-B3u nocc = 1  HOMO = -0.607882611275704  LUMO = 0.258022676215856
   mo_energy = [-6.07882611e-01  2.58022676e-01  1.02798489e+00  1.83109099e+00
  1.84742965e+00  2.90766163e+00  5.00313498e+00  5.03419012e+00
  7.34765297e+00  9.04794323e+00  9.08366423e+00  9.09567273e+00
  1.18419598e+01  1.18821750e+01  1.80828754e+01  2.57757596e+01
  2.58250548e+01  2.58415530e+01  2.77495468e+01  2.77899306e+01
  4.48666359e+01  7.83513638e+01  7.83811227e+01  1.10235668e+02
  2.30657727e+02  2.30674566e+02  2.64551242e+02  3.85917505e+02
  3.85936327e+02  3.85942603e+02  6.32070098e+02  6.88561265e+02
  6.88568810e+02  1.54644443e+03]
beta-Ag nocc = 2  HOMO = -1.07920367411265  LUMO = 0.110167086986897
   mo_energy = [-2.06315997e+01 -1.07920367e+00  1.10167087e-01  6.04648456e-01
  8.30051839e-01  8.35013752e-01  2.08844695e+00  2.40184440e+00
  2.42100076e+00  4.52260439e+00  4.54877718e+00  4.55749954e+00
  5.85413770e+00  5.85741123e+00  6.14447677e+00  1.23262519e+01
  1.23671134e+01  1.23807294e+01  1.38004704e+01  1.38255481e+01
  1.72355434e+01  1.98774829e+01  1.99181811e+01  1.99427545e+01
  1.99509717e+01  3.09255150e+01  3.09748332e+01  3.09913138e+01
  3.28453113e+01  3.28864748e+01  4.56994725e+01  8.03786241e+01
  8.04191071e+01  1.11938272e+02  1.22935259e+02  1.22972516e+02
  1.22984951e+02  1.97417715e+02  1.97447898e+02  2.56131621e+02
  4.51538211e+02  4.51557148e+02  4.51563463e+02  4.84336639e+02
  4.84354963e+02  5.67633442e+02  1.22227207e+03  1.22228094e+03
  1.26933107e+03  4.06662324e+03]
beta-B1g nocc = 0
   mo_energy = [8.30589483e-01 2.40544669e+00 4.53786883e+00 4.55531952e+00
 5.85511272e+00 1.23500889e+01 1.23773258e+01 1.38191895e+01
 1.98998272e+01 1.99325014e+01 1.99489162e+01 3.09542614e+01
 3.09871917e+01 3.28761165e+01 8.04089551e+01 1.22956983e+02
 1.22981842e+02 1.97440341e+02 4.51549256e+02 4.51561884e+02
 4.84350379e+02 1.22227872e+03]
beta-B2g nocc = 0
   mo_energy = [8.30589483e-01 2.40544669e+00 4.53786883e+00 4.55531952e+00
 5.85511272e+00 1.23500889e+01 1.23773258e+01 1.38191895e+01
 1.98998272e+01 1.99325014e+01 1.99489162e+01 3.09542614e+01
 3.09871917e+01 3.28761165e+01 8.04089551e+01 1.22956983e+02
 1.22981842e+02 1.97440341e+02 4.51549256e+02 4.51561884e+02
 4.84350379e+02 1.22227872e+03]
beta-B3g nocc = 0
   mo_energy = [8.35013752e-01 2.42100076e+00 4.52260439e+00 4.54877718e+00
 5.85741123e+00 1.23262519e+01 1.23671134e+01 1.38004704e+01
 1.98774829e+01 1.99181811e+01 1.99427545e+01 3.09255150e+01
 3.09748332e+01 3.28453113e+01 8.03786241e+01 1.22935259e+02
 1.22972516e+02 1.97417715e+02 4.51538211e+02 4.51557148e+02
 4.84336639e+02 1.22227207e+03]
beta-Au nocc = 0
   mo_energy = [  1.85104882   5.05725969   9.07829417   9.10364469  11.90919598
  25.82162261  25.85716301  27.80460412  78.38083467 230.66791628
 385.92553556 385.942152   688.56392623]
beta-B1u nocc = 0
   mo_energy = [7.87718694e-02 3.27941418e-01 1.10625321e+00 1.84182350e+00
 1.85659615e+00 2.96846969e+00 5.04301606e+00 5.06576393e+00
 7.37622635e+00 9.05939406e+00 9.09306101e+00 9.11000932e+00
 1.18864863e+01 1.19228311e+01 1.80800503e+01 2.57950783e+01
 2.58423339e+01 2.58660747e+01 2.77754260e+01 2.78221566e+01
[...]
 4.84350975e+02 1.22227936e+03]
beta-B3g nocc = 0
   mo_energy = [8.34012217e-01 2.42032367e+00 4.52143018e+00 4.54783842e+00
 5.85762839e+00 1.23259182e+01 1.23665504e+01 1.38011246e+01
 1.98769766e+01 1.99173739e+01 1.99417837e+01 3.09263831e+01
 3.09747718e+01 3.28462848e+01 8.03797904e+01 1.22936761e+02
 1.22972904e+02 1.97418876e+02 4.51539384e+02 4.51557714e+02
 4.84337664e+02 1.22227292e+03]
beta-Au nocc = 0
   mo_energy = [  1.85009654   5.05661924   9.07730127   9.10272693  11.90926088
  25.82151439  25.85655082  27.80502335  78.38145499 230.66861492
 385.92647789 385.94256    688.56464767]
beta-B1u nocc = 0
   mo_energy = [7.82775647e-02 3.28242364e-01 1.10640198e+00 1.84076746e+00
 1.85567736e+00 2.96841124e+00 5.04221875e+00 5.06518853e+00
 7.37644346e+00 9.05835133e+00 9.09211082e+00 9.10911173e+00
 1.18866460e+01 1.19228350e+01 1.80807123e+01 2.57953608e+01
 2.58419293e+01 2.58653395e+01 2.77763772e+01 2.78222638e+01
 4.48452859e+01 7.83559429e+01 7.83967894e+01 1.10210082e+02
 2.30651805e+02 2.30678709e+02 2.64530897e+02 3.85914423e+02
 3.85935858e+02 3.85946582e+02 6.32057558e+02 6.88556445e+02
 6.88569572e+02 1.54643855e+03]
beta-B2u nocc = 0
   mo_energy = [7.82775647e-02 3.28242364e-01 1.10640198e+00 1.84076746e+00
 1.85567736e+00 2.96841124e+00 5.04221875e+00 5.06518853e+00
 7.37644346e+00 9.05835133e+00 9.09211082e+00 9.10911173e+00
 1.18866460e+01 1.19228350e+01 1.80807123e+01 2.57953608e+01
 2.58419293e+01 2.58653395e+01 2.77763772e+01 2.78222638e+01
 4.48452859e+01 7.83559429e+01 7.83967894e+01 1.10210082e+02
 2.30651805e+02 2.30678709e+02 2.64530897e+02 3.85914423e+02
 3.85935858e+02 3.85946582e+02 6.32057558e+02 6.88556445e+02
 6.88569572e+02 1.54643855e+03]
beta-B3u nocc = 1  HOMO = -0.521673841124065  LUMO = 0.26552552877298
   mo_energy = [-5.21673841e-01  2.65525529e-01  1.04954752e+00  1.85009654e+00
  1.85752432e+00  2.93784085e+00  5.05661924e+00  5.06803378e+00
  7.37944469e+00  9.07730127e+00  9.10272693e+00  9.11124252e+00
  1.19092609e+01  1.19273610e+01  1.81094610e+01  2.58215144e+01
  2.58565508e+01  2.58682717e+01  2.78050234e+01  2.78280194e+01
  4.48837761e+01  7.83814550e+01  7.84019053e+01  1.10244531e+02
  2.30668615e+02  2.30682075e+02  2.64555322e+02  3.85926478e+02
  3.85942560e+02  3.85947923e+02  6.32071985e+02  6.88564648e+02
  6.88571214e+02  1.54644545e+03]
multiplicity <S^2> = 2.0093122  2S+1 = 3.0062017
E1 = -103.25238993289587  Ecoul = 28.433440863524545
cycle= 50 E= -74.8189490693713  delta_E= -1.42e-14  |g|= 1.81e-11  |ddm|= 1.57e-11
    CPU time for cycle= 50      3.88 sec, wall time      0.98 sec
diis-norm(errvec)=2.41187e-11
Linear dependence found in DIIS error vectors.
diis-c [-2.89052492e-16  1.25000000e-01  1.25000000e-01  1.25000000e-01
  1.25000000e-01  1.25000000e-01  1.25000000e-01  1.25000000e-01
  1.25000000e-01]
alpha HOMO (B3u) = -0.611551985678672  LUMO (Ag) = 0.103097619359181
alpha irrep_nelec = [2, 0, 0, 0, 0, 1, 1, 1]
beta  irrep_nelec = [2, 0, 0, 0, 0, 0, 0, 1]
alpha-Ag nocc = 2  HOMO = -1.41822412009785  LUMO = 0.103097619359181
   mo_energy = [-2.07074130e+01 -1.41822412e+00  1.03097619e-01  5.72497646e-01
  7.83024855e-01  8.13839114e-01  2.02589680e+00  2.28288743e+00
  2.34552507e+00  4.48471529e+00  4.52782528e+00  4.54250324e+00
  5.70940232e+00  5.78825669e+00  6.07049034e+00  1.22575431e+01
  1.23246251e+01  1.23471949e+01  1.36886800e+01  1.37716887e+01
  1.71776571e+01  1.98361818e+01  1.98884147e+01  1.99200534e+01
  1.99306504e+01  3.08591423e+01  3.09316176e+01  3.09559072e+01
  3.27771136e+01  3.28516160e+01  4.56660359e+01  8.03451511e+01
  8.04010121e+01  1.11922103e+02  1.22906057e+02  1.22952770e+02
  1.22968368e+02  1.97404385e+02  1.97440290e+02  2.56124626e+02
  4.51532045e+02  4.51552845e+02  4.51559783e+02  4.84332315e+02
  4.84352385e+02  5.67630824e+02  1.22227116e+03  1.22228043e+03
  1.26933039e+03  4.06662341e+03]
alpha-B1g nocc = 0
   mo_energy = [8.05427219e-01 2.32895697e+00 4.50970492e+00 4.53881764e+00
 5.76790131e+00 1.22965661e+01 1.23415417e+01 1.37505753e+01
 1.98648336e+01 1.99068430e+01 1.99279987e+01 3.09013492e+01
 3.09498285e+01 3.28328261e+01 8.03869932e+01 1.22933291e+02
 1.22964467e+02 1.97431297e+02 4.51544176e+02 4.51558049e+02
 4.84347363e+02 1.22227811e+03]
alpha-B2g nocc = 0
   mo_energy = [8.05427219e-01 2.32895697e+00 4.50970492e+00 4.53881764e+00
 5.76790131e+00 1.22965661e+01 1.23415417e+01 1.37505753e+01
 1.98648336e+01 1.99068430e+01 1.99279987e+01 3.09013492e+01
 3.09498285e+01 3.28328261e+01 8.03869932e+01 1.22933291e+02
 1.22964467e+02 1.97431297e+02 4.51544176e+02 4.51558049e+02
 4.84347363e+02 1.22227811e+03]
alpha-B3g nocc = 0
   mo_energy = [7.83024855e-01 2.28288743e+00 4.48471529e+00 4.52782528e+00
 5.70940232e+00 1.22575431e+01 1.23246251e+01 1.36886800e+01
 1.98361818e+01 1.98884147e+01 1.99200534e+01 3.08591423e+01
 3.09316176e+01 3.27771136e+01 8.03451511e+01 1.22906057e+02
 1.22952770e+02 1.97404385e+02 4.51532045e+02 4.51552845e+02
 4.84332315e+02 1.22227116e+03]
alpha-Au nocc = 0
   mo_energy = [  1.8312724    5.00227816   9.04714805   9.08298246  11.84021751
  25.77470836  25.82327456  27.74808356  78.35097434 230.65799061
 385.91821657 385.93644436 688.56170418]
alpha-B1u nocc = 1  HOMO = -0.711000315510099  LUMO = 0.243190589038574
   mo_energy = [-7.11000316e-01  2.43190589e-01  9.89454638e-01  1.81095272e+00
  1.84374461e+00  2.84655813e+00  4.96391469e+00  5.02557602e+00
  7.27158113e+00  9.02060435e+00  9.06798869e+00  9.09202264e+00
  1.17908960e+01  1.18700337e+01  1.80047932e+01  2.57385083e+01
  2.58029965e+01  2.58354706e+01  2.76988412e+01  2.77777681e+01
  4.48008264e+01  7.83148368e+01  7.83726979e+01  1.10188648e+02
  2.30637591e+02  2.30670240e+02  2.64521810e+02  3.85904554e+02
  3.85928848e+02  3.85941003e+02  6.32054038e+02  6.88552575e+02
  6.88567185e+02  1.54643728e+03]
alpha-B2u nocc = 1  HOMO = -0.711000315510055  LUMO = 0.243190589038471
   mo_energy = [-7.11000316e-01  2.43190589e-01  9.89454638e-01  1.81095272e+00
  1.84374461e+00  2.84655813e+00  4.96391469e+00  5.02557602e+00
  7.27158113e+00  9.02060435e+00  9.06798869e+00  9.09202264e+00
  1.17908960e+01  1.18700337e+01  1.80047932e+01  2.57385083e+01
  2.58029965e+01  2.58354706e+01  2.76988412e+01  2.77777681e+01
  4.48008264e+01  7.83148368e+01  7.83726979e+01  1.10188648e+02
  2.30637591e+02  2.30670240e+02  2.64521810e+02  3.85904554e+02
  3.85928848e+02  3.85941003e+02  6.32054038e+02  6.88552575e+02
  6.88567185e+02  1.54643728e+03]
alpha-B3u nocc = 1  HOMO = -0.611551985678672  LUMO = 0.25789880256975
   mo_energy = [-6.11551986e-01  2.57898803e-01  1.02724174e+00  1.83127240e+00
  1.84796113e+00  2.90623629e+00  5.00227816e+00  5.03339984e+00
  7.34560515e+00  9.04714805e+00  9.08298246e+00  9.09504345e+00
  1.18402175e+01  1.18800138e+01  1.80806469e+01  2.57747084e+01
  2.58232746e+01  2.58395409e+01  2.77480836e+01  2.77876870e+01
  4.48648798e+01  7.83509743e+01  7.83799460e+01  1.10234638e+02
  2.30657991e+02  2.30674325e+02  2.64550827e+02  3.85918217e+02
  3.85936444e+02  3.85942523e+02  6.32070106e+02  6.88561704e+02
  6.88569013e+02  1.54644470e+03]
beta-Ag nocc = 2  HOMO = -1.07550647616256  LUMO = 0.11006168183275
   mo_energy = [-2.06291382e+01 -1.07550648e+00  1.10061682e-01  6.04740677e-01
  8.28490812e-01  8.34012217e-01  2.08904613e+00  2.40165646e+00
  2.42032367e+00  4.52143018e+00  4.54783842e+00  4.55662880e+00
  5.85523040e+00  5.85762839e+00  6.14525705e+00  1.23259182e+01
  1.23665504e+01  1.23800910e+01  1.38011246e+01  1.38262509e+01
  1.72363454e+01  1.98769766e+01  1.99173739e+01  1.99417837e+01
  1.99499491e+01  3.09263831e+01  3.09747718e+01  3.09909496e+01
  3.28462848e+01  3.28866577e+01  4.57002517e+01  8.03797904e+01
  8.04191961e+01  1.11939063e+02  1.22936761e+02  1.22972904e+02
  1.22984971e+02  1.97418876e+02  1.97448160e+02  2.56132414e+02
  4.51539384e+02  4.51557714e+02  4.51563827e+02  4.84337664e+02
  4.84355418e+02  5.67634208e+02  1.22227292e+03  1.22228151e+03
  1.26933179e+03  4.06662389e+03]
beta-B1g nocc = 0
   mo_energy = [8.29248598e-01 2.40528722e+00 4.53683669e+00 4.55443241e+00
 5.85603093e+00 1.23496205e+01 1.23767063e+01 1.38198844e+01
 1.98991512e+01 1.99315973e+01 1.99479064e+01 3.09545834e+01
 3.09869029e+01 3.28764913e+01 8.04093088e+01 1.22957834e+02
 1.22981953e+02 1.97440826e+02 4.51550074e+02 4.51562299e+02
 4.84350975e+02 1.22227936e+03]
beta-B2g nocc = 0
   mo_energy = [8.29248598e-01 2.40528722e+00 4.53683669e+00 4.55443241e+00
 5.85603093e+00 1.23496205e+01 1.23767063e+01 1.38198844e+01
 1.98991512e+01 1.99315973e+01 1.99479064e+01 3.09545834e+01
 3.09869029e+01 3.28764913e+01 8.04093088e+01 1.22957834e+02
 1.22981953e+02 1.97440826e+02 4.51550074e+02 4.51562299e+02
 4.84350975e+02 1.22227936e+03]
beta-B3g nocc = 0
   mo_energy = [8.34012217e-01 2.42032367e+00 4.52143018e+00 4.54783842e+00
 5.85762839e+00 1.23259182e+01 1.23665504e+01 1.38011246e+01
 1.98769766e+01 1.99173739e+01 1.99417837e+01 3.09263831e+01
 3.09747718e+01 3.28462848e+01 8.03797904e+01 1.22936761e+02
 1.22972904e+02 1.97418876e+02 4.51539384e+02 4.51557714e+02
 4.84337664e+02 1.22227292e+03]
beta-Au nocc = 0
   mo_energy = [  1.85009654   5.05661924   9.07730127   9.10272693  11.90926088
  25.82151439  25.85655082  27.80502335  78.38145499 230.66861492
 385.92647789 385.94256    688.56464767]
beta-B1u nocc = 0
   mo_energy = [7.82775647e-02 3.28242364e-01 1.10640198e+00 1.84076746e+00
 1.85567736e+00 2.96841124e+00 5.04221875e+00 5.06518853e+00
 7.37644346e+00 9.05835133e+00 9.09211082e+00 9.10911173e+00
 1.18866460e+01 1.19228350e+01 1.80807123e+01 2.57953608e+01
 2.58419293e+01 2.58653395e+01 2.77763772e+01 2.78222638e+01
 4.48452859e+01 7.83559429e+01 7.83967894e+01 1.10210082e+02
 2.30651805e+02 2.30678709e+02 2.64530897e+02 3.85914423e+02
 3.85935858e+02 3.85946582e+02 6.32057558e+02 6.88556445e+02
 6.88569572e+02 1.54643855e+03]
beta-B2u nocc = 0
   mo_energy = [7.82775647e-02 3.28242364e-01 1.10640198e+00 1.84076746e+00
 1.85567736e+00 2.96841124e+00 5.04221875e+00 5.06518853e+00
 7.37644346e+00 9.05835133e+00 9.09211082e+00 9.10911173e+00
 1.18866460e+01 1.19228350e+01 1.80807123e+01 2.57953608e+01
 2.58419293e+01 2.58653395e+01 2.77763772e+01 2.78222638e+01
 4.48452859e+01 7.83559429e+01 7.83967894e+01 1.10210082e+02
 2.30651805e+02 2.30678709e+02 2.64530897e+02 3.85914423e+02
 3.85935858e+02 3.85946582e+02 6.32057558e+02 6.88556445e+02
 6.88569572e+02 1.54643855e+03]
beta-B3u nocc = 1  HOMO = -0.521673841122628  LUMO = 0.265525528773189
   mo_energy = [-5.21673841e-01  2.65525529e-01  1.04954752e+00  1.85009654e+00
  1.85752432e+00  2.93784085e+00  5.05661924e+00  5.06803378e+00
  7.37944469e+00  9.07730127e+00  9.10272693e+00  9.11124252e+00
  1.19092609e+01  1.19273610e+01  1.81094610e+01  2.58215144e+01
  2.58565508e+01  2.58682717e+01  2.78050234e+01  2.78280194e+01
  4.48837761e+01  7.83814550e+01  7.84019053e+01  1.10244531e+02
  2.30668615e+02  2.30682075e+02  2.64555322e+02  3.85926478e+02
  3.85942560e+02  3.85947923e+02  6.32071985e+02  6.88564648e+02
  6.88571214e+02  1.54644545e+03]
multiplicity <S^2> = 2.0093122  2S+1 = 3.0062017
E1 = -103.25238993289477  Ecoul = 28.433440863523494
cycle= 51 E= -74.8189490693713  delta_E= 2.84e-14  |g|= 1.92e-11  |ddm|= 8.91e-12
    CPU time for cycle= 51      3.90 sec, wall time      0.98 sec
alpha HOMO (B3u) = -0.611551985683689  LUMO (Ag) = 0.103097619359365
alpha irrep_nelec = [2, 0, 0, 0, 0, 1, 1, 1]
beta  irrep_nelec = [2, 0, 0, 0, 0, 0, 0, 1]
alpha-Ag nocc = 2  HOMO = -1.4182241201002  LUMO = 0.103097619359365
   mo_energy = [-2.07074130e+01 -1.41822412e+00  1.03097619e-01  5.72497646e-01
  7.83024855e-01  8.13839114e-01  2.02589680e+00  2.28288743e+00
  2.34552507e+00  4.48471529e+00  4.52782528e+00  4.54250324e+00
  5.70940232e+00  5.78825669e+00  6.07049034e+00  1.22575431e+01
  1.23246251e+01  1.23471949e+01  1.36886800e+01  1.37716887e+01
  1.71776571e+01  1.98361818e+01  1.98884147e+01  1.99200534e+01
  1.99306504e+01  3.08591423e+01  3.09316176e+01  3.09559072e+01
  3.27771136e+01  3.28516160e+01  4.56660359e+01  8.03451511e+01
  8.04010121e+01  1.11922103e+02  1.22906057e+02  1.22952770e+02
  1.22968368e+02  1.97404385e+02  1.97440290e+02  2.56124626e+02
  4.51532045e+02  4.51552845e+02  4.51559783e+02  4.84332315e+02
  4.84352385e+02  5.67630824e+02  1.22227116e+03  1.22228043e+03
  1.26933039e+03  4.06662341e+03]
alpha-B1g nocc = 0
   mo_energy = [8.05427219e-01 2.32895697e+00 4.50970492e+00 4.53881764e+00
 5.76790131e+00 1.22965661e+01 1.23415417e+01 1.37505753e+01
 1.98648336e+01 1.99068430e+01 1.99279987e+01 3.09013492e+01
 3.09498285e+01 3.28328261e+01 8.03869932e+01 1.22933291e+02
 1.22964467e+02 1.97431297e+02 4.51544176e+02 4.51558049e+02
 4.84347363e+02 1.22227811e+03]
alpha-B2g nocc = 0
   mo_energy = [8.05427219e-01 2.32895697e+00 4.50970492e+00 4.53881764e+00
 5.76790131e+00 1.22965661e+01 1.23415417e+01 1.37505753e+01
 1.98648336e+01 1.99068430e+01 1.99279987e+01 3.09013492e+01
 3.09498285e+01 3.28328261e+01 8.03869932e+01 1.22933291e+02
 1.22964467e+02 1.97431297e+02 4.51544176e+02 4.51558049e+02
 4.84347363e+02 1.22227811e+03]
alpha-B3g nocc = 0
   mo_energy = [7.83024855e-01 2.28288743e+00 4.48471529e+00 4.52782528e+00
 5.70940232e+00 1.22575431e+01 1.23246251e+01 1.36886800e+01
 1.98361818e+01 1.98884147e+01 1.99200534e+01 3.08591423e+01
 3.09316176e+01 3.27771136e+01 8.03451511e+01 1.22906057e+02
 1.22952770e+02 1.97404385e+02 4.51532045e+02 4.51552845e+02
 4.84332315e+02 1.22227116e+03]
alpha-Au nocc = 0
   mo_energy = [  1.8312724    5.00227816   9.04714805   9.08298246  11.84021751
  25.77470836  25.82327456  27.74808356  78.35097434 230.65799061
 385.91821657 385.93644436 688.56170418]
alpha-B1u nocc = 1  HOMO = -0.711000315511194  LUMO = 0.243190589038641
   mo_energy = [-7.11000316e-01  2.43190589e-01  9.89454638e-01  1.81095272e+00
  1.84374461e+00  2.84655813e+00  4.96391469e+00  5.02557602e+00
  7.27158113e+00  9.02060435e+00  9.06798869e+00  9.09202264e+00
  1.17908960e+01  1.18700337e+01  1.80047932e+01  2.57385083e+01
  2.58029965e+01  2.58354706e+01  2.76988412e+01  2.77777681e+01
  4.48008264e+01  7.83148368e+01  7.83726979e+01  1.10188648e+02
  2.30637591e+02  2.30670240e+02  2.64521810e+02  3.85904554e+02
  3.85928848e+02  3.85941003e+02  6.32054038e+02  6.88552575e+02
  6.88567185e+02  1.54643728e+03]
alpha-B2u nocc = 1  HOMO = -0.711000315511269  LUMO = 0.243190589038449
   mo_energy = [-7.11000316e-01  2.43190589e-01  9.89454638e-01  1.81095272e+00
  1.84374461e+00  2.84655813e+00  4.96391469e+00  5.02557602e+00
  7.27158113e+00  9.02060435e+00  9.06798869e+00  9.09202264e+00
  1.17908960e+01  1.18700337e+01  1.80047932e+01  2.57385083e+01
  2.58029965e+01  2.58354706e+01  2.76988412e+01  2.77777681e+01
  4.48008264e+01  7.83148368e+01  7.83726979e+01  1.10188648e+02
  2.30637591e+02  2.30670240e+02  2.64521810e+02  3.85904554e+02
  3.85928848e+02  3.85941003e+02  6.32054038e+02  6.88552575e+02
  6.88567185e+02  1.54643728e+03]
alpha-B3u nocc = 1  HOMO = -0.611551985683689  LUMO = 0.257898802569047
   mo_energy = [-6.11551986e-01  2.57898803e-01  1.02724174e+00  1.83127240e+00
  1.84796113e+00  2.90623629e+00  5.00227816e+00  5.03339984e+00
  7.34560515e+00  9.04714805e+00  9.08298246e+00  9.09504345e+00
  1.18402175e+01  1.18800138e+01  1.80806469e+01  2.57747084e+01
  2.58232746e+01  2.58395409e+01  2.77480836e+01  2.77876870e+01
  4.48648798e+01  7.83509743e+01  7.83799460e+01  1.10234638e+02
  2.30657991e+02  2.30674325e+02  2.64550827e+02  3.85918217e+02
  3.85936444e+02  3.85942523e+02  6.32070106e+02  6.88561704e+02
  6.88569013e+02  1.54644470e+03]
beta-Ag nocc = 2  HOMO = -1.07550647616044  LUMO = 0.110061681832272
   mo_energy = [-2.06291382e+01 -1.07550648e+00  1.10061682e-01  6.04740677e-01
  8.28490812e-01  8.34012217e-01  2.08904613e+00  2.40165646e+00
  2.42032367e+00  4.52143018e+00  4.54783842e+00  4.55662880e+00
  5.85523040e+00  5.85762839e+00  6.14525705e+00  1.23259182e+01
  1.23665504e+01  1.23800910e+01  1.38011246e+01  1.38262509e+01
  1.72363454e+01  1.98769766e+01  1.99173739e+01  1.99417837e+01
  1.99499491e+01  3.09263831e+01  3.09747718e+01  3.09909496e+01
  3.28462848e+01  3.28866577e+01  4.57002517e+01  8.03797904e+01
  8.04191961e+01  1.11939063e+02  1.22936761e+02  1.22972904e+02
  1.22984971e+02  1.97418876e+02  1.97448160e+02  2.56132414e+02
  4.51539384e+02  4.51557714e+02  4.51563827e+02  4.84337664e+02
  4.84355418e+02  5.67634208e+02  1.22227292e+03  1.22228151e+03
  1.26933179e+03  4.06662389e+03]
beta-B1g nocc = 0
   mo_energy = [8.29248598e-01 2.40528722e+00 4.53683669e+00 4.55443241e+00
 5.85603093e+00 1.23496205e+01 1.23767063e+01 1.38198844e+01
 1.98991512e+01 1.99315973e+01 1.99479064e+01 3.09545834e+01
 3.09869029e+01 3.28764913e+01 8.04093088e+01 1.22957834e+02
 1.22981953e+02 1.97440826e+02 4.51550074e+02 4.51562299e+02
 4.84350975e+02 1.22227936e+03]
beta-B2g nocc = 0
   mo_energy = [8.29248598e-01 2.40528722e+00 4.53683669e+00 4.55443241e+00
 5.85603093e+00 1.23496205e+01 1.23767063e+01 1.38198844e+01
 1.98991512e+01 1.99315973e+01 1.99479064e+01 3.09545834e+01
 3.09869029e+01 3.28764913e+01 8.04093088e+01 1.22957834e+02
 1.22981953e+02 1.97440826e+02 4.51550074e+02 4.51562299e+02
 4.84350975e+02 1.22227936e+03]
beta-B3g nocc = 0
   mo_energy = [8.34012217e-01 2.42032367e+00 4.52143018e+00 4.54783842e+00
 5.85762839e+00 1.23259182e+01 1.23665504e+01 1.38011246e+01
 1.98769766e+01 1.99173739e+01 1.99417837e+01 3.09263831e+01
 3.09747718e+01 3.28462848e+01 8.03797904e+01 1.22936761e+02
 1.22972904e+02 1.97418876e+02 4.51539384e+02 4.51557714e+02
 4.84337664e+02 1.22227292e+03]
beta-Au nocc = 0
   mo_energy = [  1.85009654   5.05661924   9.07730127   9.10272693  11.90926088
  25.82151439  25.85655082  27.80502335  78.38145499 230.66861492
 385.92647789 385.94256    688.56464767]
beta-B1u nocc = 0
   mo_energy = [7.82775647e-02 3.28242364e-01 1.10640198e+00 1.84076746e+00
 1.85567736e+00 2.96841124e+00 5.04221875e+00 5.06518853e+00
 7.37644346e+00 9.05835133e+00 9.09211082e+00 9.10911173e+00
 1.18866460e+01 1.19228350e+01 1.80807123e+01 2.57953608e+01
 2.58419293e+01 2.58653395e+01 2.77763772e+01 2.78222638e+01
 4.48452859e+01 7.83559429e+01 7.83967894e+01 1.10210082e+02
 2.30651805e+02 2.30678709e+02 2.64530897e+02 3.85914423e+02
 3.85935858e+02 3.85946582e+02 6.32057558e+02 6.88556445e+02
 6.88569572e+02 1.54643855e+03]
beta-B2u nocc = 0
   mo_energy = [7.82775647e-02 3.28242364e-01 1.10640198e+00 1.84076746e+00
 1.85567736e+00 2.96841124e+00 5.04221875e+00 5.06518853e+00
 7.37644346e+00 9.05835133e+00 9.09211082e+00 9.10911173e+00
 1.18866460e+01 1.19228350e+01 1.80807123e+01 2.57953608e+01
 2.58419293e+01 2.58653395e+01 2.77763772e+01 2.78222638e+01
 4.48452859e+01 7.83559429e+01 7.83967894e+01 1.10210082e+02
 2.30651805e+02 2.30678709e+02 2.64530897e+02 3.85914423e+02
 3.85935858e+02 3.85946582e+02 6.32057558e+02 6.88556445e+02
 6.88569572e+02 1.54643855e+03]
beta-B3u nocc = 1  HOMO = -0.521673841117357  LUMO = 0.265525528773738
   mo_energy = [-5.21673841e-01  2.65525529e-01  1.04954752e+00  1.85009654e+00
  1.85752432e+00  2.93784085e+00  5.05661924e+00  5.06803378e+00
  7.37944469e+00  9.07730127e+00  9.10272693e+00  9.11124252e+00
  1.19092609e+01  1.19273610e+01  1.81094610e+01  2.58215144e+01
  2.58565508e+01  2.58682717e+01  2.78050234e+01  2.78280194e+01
  4.48837761e+01  7.83814550e+01  7.84019053e+01  1.10244531e+02
  2.30668615e+02  2.30682075e+02  2.64555322e+02  3.85926478e+02
  3.85942560e+02  3.85947923e+02  6.32071985e+02  6.88564648e+02
  6.88571214e+02  1.54644545e+03]
multiplicity <S^2> = 2.0093122  2S+1 = 3.0062017
E1 = -103.2523899328959  Ecoul = 28.433440863524662
Extra cycle  E= -74.8189490693712  delta_E= 5.68e-14  |g|= 1.33e-11  |ddm|= 8.91e-12
    CPU time for scf_cycle    289.80 sec, wall time     74.35 sec
    CPU time for SCF    289.83 sec, wall time     74.36 sec
converged SCF energy = -74.8189490693712  <S^2> = 2.0093122  2S+1 = 3.0062017
