#INFO: **** input file is /lustre06/project/6058907/jaafar1/PySCF-MRCC/Oxygen/Cation/+1/AE/aCV5Z/CC-5-6/input.py ****
import pyscf
from pyscf import cc, lib, tools, scf, symm, ao2mo
from pyscf.gto.basis import parse_gaussian
from pyscf.cc.mrcc import MRCCInterface

name = 'out'
mol = pyscf.M(
    atom = '''
        O
    ''',
    unit = 'angstrom',
    basis = {
            'O' : parse_gaussian.load('O-aCV5Z-EMSL.gbs', 'O')
    },
    charge = 1,
    spin = 3,
    symmetry = True,
    verbose = 9,
    symmetry_subgroup = 'D2h',
    output = name +'.txt',
    max_memory = 32000,
)
mf = mol.UHF().set(conv_tol=1e-10,max_cycle=9999,ddm_tol=1e-12,direct_scf_tol=1e-12,chkfile=name+'.chk',init_guess='atom',irrep_nelec={'Ag': 4, 'B3u':1 , 'B2u':1 ,'B1u':1 })
mf.kernel()

#pyscf.tools.fcidump.from_chkfile_uhf('FCIdump',name+'.chk',tol=1e-18, float_format='% 0.20E',molpro_orbsym=False,orbsym=None)
pyscf.tools.fcidump.from_scf_uhf(mf,'fort.55',tol=1e-18, float_format='% 0.20E',molpro_orbsym=False)

#MRCCInterface.run_mrcc(mf, fort_file='fort.55', mrcc_input_file='MINP', tol=1e-18, float_format='% 0.20E', molpro_orbsym=False)
#INFO: ******************** input file end ********************


System: uname_result(system='Linux', node='nc31428.narval.calcul.quebec', release='4.18.0-553.34.1.el8_10.x86_64', version='#1 SMP Wed Jan 8 14:44:18 UTC 2025', machine='x86_64')  Threads 4
Python 3.12.4 (main, Jun  7 2024, 23:47:47) [GCC 13.3.0]
numpy 2.1.1  scipy 1.14.1  h5py 3.12.0
Date: Fri Feb 14 20:53:35 2025
PySCF version 2.7.0
PySCF path  /home/jaafar1/projects/def-nike-ab/jaafar1/VENV/MRCCInterface/lib/python3.12/site-packages/pyscf

[CONFIG] ARGPARSE = False
[CONFIG] DEBUG = False
[CONFIG] MAX_MEMORY = 4000
[CONFIG] TMPDIR = /tmp
[CONFIG] UNIT = angstrom
[CONFIG] VERBOSE = 3
[CONFIG] conf_file = None
[INPUT] verbose = 9
[INPUT] max_memory = 32000 
[INPUT] num. atoms = 1
[INPUT] num. electrons = 7
[INPUT] charge = 1
[INPUT] spin (= nelec alpha-beta = 2S) = 3
[INPUT] symmetry True subgroup D2h
[INPUT] Mole.unit = angstrom
[INPUT] Symbol           X                Y                Z      unit          X                Y                Z       unit  Magmom
[INPUT]  1 O      0.000000000000   0.000000000000   0.000000000000 AA    0.000000000000   0.000000000000   0.000000000000 Bohr   0.0
[INPUT] ---------------- BASIS SET ---------------- 
[INPUT] l, kappa, [nprim/nctr], expnt,             c_1 c_2 ...
[INPUT] O
[INPUT] 0    0    [1    /1   ]  188.62               1
[INPUT] 0    0    [1    /1   ]  82.259               1
[INPUT] 0    0    [1    /1   ]  35.874               1
[INPUT] 0    0    [1    /1   ]  15.645               1
[INPUT] 0    0    [14   /2   ]  164200            2.6e-05 -6e-06
                                24590             0.000205 -4.6e-05
                                5592              0.001076 -0.000244
                                1582              0.004522 -0.001031
                                516.1             0.016108 -0.003688
                                187.2             0.049085 -0.011514
                                73.93             0.124857 -0.030435
                                31.22             0.251686 -0.068147
                                13.81             0.36242 -0.120368
                                6.256             0.279051 -0.14826
                                2.776             0.063552 0.009905
                                1.138             0.001063 0.384286
                                0.46              0.001144 0.536805
                                0.1829            -4e-05 0.202687
[INPUT] 0    0    [1    /1   ]  2.776                1
[INPUT] 0    0    [1    /1   ]  1.138                1
[INPUT] 0    0    [1    /1   ]  0.46                 1
[INPUT] 0    0    [1    /1   ]  0.1829               1
[INPUT] 0    0    [1    /1   ]  0.0655               1
[INPUT] 1    0    [1    /1   ]  225.63               1
[INPUT] 1    0    [1    /1   ]  89.429               1
[INPUT] 1    0    [1    /1   ]  35.446               1
[INPUT] 1    0    [1    /1   ]  14.049               1
[INPUT] 1    0    [1    /1   ]  2.094                1
[INPUT] 1    0    [1    /1   ]  0.8471               1
[INPUT] 1    0    [8    /1   ]  195.5             0.000918
                                46.16             0.007388
                                14.58             0.034958
                                5.296             0.115431
                                2.094             0.256803
                                0.8471            0.373938
                                0.3368            0.343447
                                0.1285            0.129706
[INPUT] 1    0    [1    /1   ]  0.3368               1
[INPUT] 1    0    [1    /1   ]  0.1285               1
[INPUT] 1    0    [1    /1   ]  0.0446               1
[INPUT] 2    0    [1    /1   ]  134.056              1
[INPUT] 2    0    [1    /1   ]  47.32                1
[INPUT] 2    0    [1    /1   ]  16.703               1
[INPUT] 2    0    [1    /1   ]  5.879                1
[INPUT] 2    0    [1    /1   ]  2.307                1
[INPUT] 2    0    [1    /1   ]  0.905                1
[INPUT] 2    0    [1    /1   ]  0.355                1
[INPUT] 2    0    [1    /1   ]  0.131                1
[INPUT] 3    0    [1    /1   ]  65.546               1
[INPUT] 3    0    [1    /1   ]  17.354               1
[INPUT] 3    0    [1    /1   ]  4.016                1
[INPUT] 3    0    [1    /1   ]  1.554                1
[INPUT] 3    0    [1    /1   ]  0.601                1
[INPUT] 3    0    [1    /1   ]  0.237                1
[INPUT] 4    0    [1    /1   ]  48.578               1
[INPUT] 4    0    [1    /1   ]  3.35                 1
[INPUT] 4    0    [1    /1   ]  1.189                1
[INPUT] 4    0    [1    /1   ]  0.517                1
[INPUT] 5    0    [1    /1   ]  2.319                1
[INPUT] 5    0    [1    /1   ]  1.024                1

nuclear repulsion = 0
point group symmetry = SO3, use subgroup D2h
symmetry origin: [0. 0. 0.]
symmetry axis x: [1. 0. 0.]
symmetry axis y: [0. 1. 0.]
symmetry axis z: [0. 0. 1.]
num. orbitals of irrep Ag = 39
num. orbitals of irrep B1g = 16
num. orbitals of irrep B2g = 16
num. orbitals of irrep B3g = 16
num. orbitals of irrep Au = 10
num. orbitals of irrep B1u = 28
num. orbitals of irrep B2u = 28
num. orbitals of irrep B3u = 28
number of shells = 40
number of NR pGTOs = 214
number of NR cGTOs = 181
basis = {'O': [[0, [188.62, 1.0]], [0, [82.259, 1.0]], [0, [35.874, 1.0]], [0, [15.645, 1.0]], [0, [164200.0, 2.6e-05, -6e-06], [24590.0, 0.000205, -4.6e-05], [5592.0, 0.001076, -0.000244], [1582.0, 0.004522, -0.001031], [516.1, 0.016108, -0.003688], [187.2, 0.049085, -0.011514], [73.93, 0.124857, -0.030435], [31.22, 0.251686, -0.068147], [13.81, 0.36242, -0.120368], [6.256, 0.279051, -0.14826], [2.776, 0.063552, 0.009905], [1.138, 0.001063, 0.384286], [0.46, 0.001144, 0.536805], [0.1829, -4e-05, 0.202687]], [0, [2.776, 1.0]], [0, [1.138, 1.0]], [0, [0.46, 1.0]], [0, [0.1829, 1.0]], [0, [0.0655, 1.0]], [1, [225.63, 1.0]], [1, [89.429, 1.0]], [1, [35.446, 1.0]], [1, [14.049, 1.0]], [1, [2.094, 1.0]], [1, [0.8471, 1.0]], [1, [195.5, 0.000918], [46.16, 0.007388], [14.58, 0.034958], [5.296, 0.115431], [2.094, 0.256803], [0.8471, 0.373938], [0.3368, 0.343447], [0.1285, 0.129706]], [1, [0.3368, 1.0]], [1, [0.1285, 1.0]], [1, [0.0446, 1.0]], [2, [134.056, 1.0]], [2, [47.32, 1.0]], [2, [16.703, 1.0]], [2, [5.879, 1.0]], [2, [2.307, 1.0]], [2, [0.905, 1.0]], [2, [0.355, 1.0]], [2, [0.131, 1.0]], [3, [65.546, 1.0]], [3, [17.354, 1.0]], [3, [4.016, 1.0]], [3, [1.554, 1.0]], [3, [0.601, 1.0]], [3, [0.237, 1.0]], [4, [48.578, 1.0]], [4, [3.35, 1.0]], [4, [1.189, 1.0]], [4, [0.517, 1.0]], [5, [2.319, 1.0]], [5, [1.024, 1.0]]]}
ecp = {}
bas 0, expnt(s) = [188.62]
bas 1, expnt(s) = [82.259]
bas 2, expnt(s) = [35.874]
bas 3, expnt(s) = [15.645]
bas 4, expnt(s) = [1.642e+05 2.459e+04 5.592e+03 1.582e+03 5.161e+02 1.872e+02 7.393e+01
 3.122e+01 1.381e+01 6.256e+00 2.776e+00 1.138e+00 4.600e-01 1.829e-01]
bas 5, expnt(s) = [2.776]
bas 6, expnt(s) = [1.138]
bas 7, expnt(s) = [0.46]
bas 8, expnt(s) = [0.1829]
bas 9, expnt(s) = [0.0655]
bas 10, expnt(s) = [225.63]
bas 11, expnt(s) = [89.429]
bas 12, expnt(s) = [35.446]
bas 13, expnt(s) = [14.049]
bas 14, expnt(s) = [2.094]
bas 15, expnt(s) = [0.8471]
bas 16, expnt(s) = [1.955e+02 4.616e+01 1.458e+01 5.296e+00 2.094e+00 8.471e-01 3.368e-01
 1.285e-01]
bas 17, expnt(s) = [0.3368]
bas 18, expnt(s) = [0.1285]
bas 19, expnt(s) = [0.0446]
bas 20, expnt(s) = [134.056]
bas 21, expnt(s) = [47.32]
bas 22, expnt(s) = [16.703]
bas 23, expnt(s) = [5.879]
bas 24, expnt(s) = [2.307]
bas 25, expnt(s) = [0.905]
bas 26, expnt(s) = [0.355]
bas 27, expnt(s) = [0.131]
bas 28, expnt(s) = [65.546]
bas 29, expnt(s) = [17.354]
bas 30, expnt(s) = [4.016]
bas 31, expnt(s) = [1.554]
bas 32, expnt(s) = [0.601]
bas 33, expnt(s) = [0.237]
bas 34, expnt(s) = [48.578]
bas 35, expnt(s) = [3.35]
bas 36, expnt(s) = [1.189]
bas 37, expnt(s) = [0.517]
bas 38, expnt(s) = [2.319]
bas 39, expnt(s) = [1.024]
CPU time:         1.44
arg.atm = [[ 8 20  1 23  0  0]]
arg.bas = [[  0   0   1   1   0  24  25   0]
 [  0   0   1   1   0  26  27   0]
 [  0   0   1   1   0  28  29   0]
 [  0   0   1   1   0  30  31   0]
 [  0   0  14   2   0  32  46   0]
 [  0   0   1   1   0  74  75   0]
 [  0   0   1   1   0  76  77   0]
 [  0   0   1   1   0  78  79   0]
 [  0   0   1   1   0  80  81   0]
 [  0   0   1   1   0  82  83   0]
 [  0   1   1   1   0  84  85   0]
 [  0   1   1   1   0  86  87   0]
 [  0   1   1   1   0  88  89   0]
 [  0   1   1   1   0  90  91   0]
 [  0   1   1   1   0  92  93   0]
 [  0   1   1   1   0  94  95   0]
 [  0   1   8   1   0  96 104   0]
 [  0   1   1   1   0 112 113   0]
 [  0   1   1   1   0 114 115   0]
 [  0   1   1   1   0 116 117   0]
 [  0   2   1   1   0 118 119   0]
 [  0   2   1   1   0 120 121   0]
 [  0   2   1   1   0 122 123   0]
 [  0   2   1   1   0 124 125   0]
 [  0   2   1   1   0 126 127   0]
 [  0   2   1   1   0 128 129   0]
 [  0   2   1   1   0 130 131   0]
 [  0   2   1   1   0 132 133   0]
 [  0   3   1   1   0 134 135   0]
 [  0   3   1   1   0 136 137   0]
 [  0   3   1   1   0 138 139   0]
 [  0   3   1   1   0 140 141   0]
 [  0   3   1   1   0 142 143   0]
 [  0   3   1   1   0 144 145   0]
 [  0   4   1   1   0 146 147   0]
 [  0   4   1   1   0 148 149   0]
 [  0   4   1   1   0 150 151   0]
 [  0   4   1   1   0 152 153   0]
 [  0   5   1   1   0 154 155   0]
 [  0   5   1   1   0 156 157   0]]
arg.env = [ 0.00000000e+00  0.00000000e+00  0.00000000e+00  0.00000000e+00
  0.00000000e+00  0.00000000e+00  0.00000000e+00  0.00000000e+00
  0.00000000e+00  0.00000000e+00  0.00000000e+00  0.00000000e+00
  0.00000000e+00  0.00000000e+00  0.00000000e+00  0.00000000e+00
  0.00000000e+00  0.00000000e+00  0.00000000e+00  0.00000000e+00
  0.00000000e+00  0.00000000e+00  0.00000000e+00  0.00000000e+00
  1.88620000e+02  1.28589595e+02  8.22590000e+01  6.90085009e+01
  3.58740000e+01  3.70339365e+01  1.56450000e+01  1.98745223e+01
  1.64200000e+05  2.45900000e+04  5.59200000e+03  1.58200000e+03
  5.16100000e+02  1.87200000e+02  7.39300000e+01  3.12200000e+01
  1.38100000e+01  6.25600000e+00  2.77600000e+00  1.13800000e+00
  4.60000000e-01  1.82900000e-01  5.35819082e-01  1.01703927e+00
  1.75793417e+00  2.86582971e+00  4.40663398e+00  6.27614751e+00
  7.95322720e+00  8.39844140e+00  6.55952480e+00  2.78882396e+00
  3.45309703e-01  2.95906786e-03  1.61439336e-03 -2.82641047e-05
 -1.23650525e-01 -2.28213629e-01 -3.98639240e-01 -6.53398860e-01
 -1.00891866e+00 -1.47221235e+00 -1.93866908e+00 -2.27397803e+00
 -2.17856816e+00 -1.48170381e+00  5.38187894e-02  1.06973476e+00
  7.57529891e-01  1.43219127e-01  2.77600000e+00  5.43349936e+00
  1.13800000e+00  2.78369546e+00  4.60000000e-01  1.41118320e+00
  1.82900000e-01  7.06602718e-01  6.55000000e-02  3.27111641e-01
  2.25630000e+02  2.55111741e+03  8.94290000e+01  8.02291813e+02
  3.54460000e+01  2.52315212e+02  1.40490000e+01  7.93489452e+01
  2.09400000e+00  7.34861067e+00  8.47100000e-01  2.37084272e+00
  1.95500000e+02  4.61600000e+01  1.45800000e+01  5.29600000e+00
  2.09400000e+00  8.47100000e-01  3.36800000e-01  1.28500000e-01
  1.95776499e+00  2.59324508e+00  2.90554702e+00  2.70546459e+00
  1.88714541e+00  8.86548253e-01  2.57074652e-01  2.91120911e-02
  3.36800000e-01  7.48513256e-01  1.28500000e-01  2.24446740e-01
  4.46000000e-02  5.97933610e-02  1.34056000e+02  1.37809874e+04
  4.73200000e+01  2.22770497e+03  1.67030000e+01  3.60097186e+02
  5.87900000e+00  5.79175846e+01  2.30700000e+00  1.12684109e+01
  9.05000000e-01  2.19111110e+00  3.55000000e-01  4.26019035e-01
  1.31000000e-01  7.44310513e-02  6.55460000e+01  2.41123366e+04
  1.73540000e+01  1.21243774e+03  4.01600000e+00  4.50345882e+01
  1.55400000e+00  5.31832832e+00  6.01000000e-01  6.27303808e-01
  2.37000000e-01  7.73026069e-02  4.85780000e+01  5.70989453e+04
  3.35000000e+00  3.65420007e+01  1.18900000e+00  2.11674822e+00
  5.17000000e-01  2.14297989e-01  2.31900000e+00  1.22033815e+01
  1.02400000e+00  8.56500488e-01]
ecpbas  = []


******** <class 'pyscf.scf.uhf_symm.SymAdaptedUHF'> ********
method = SymAdaptedUHF
initial guess = atom
damping factor = 0
level_shift factor = 0
DIIS = <class 'pyscf.scf.diis.CDIIS'>
diis_start_cycle = 1
diis_space = 8
diis_damp = 0
SCF conv_tol = 1e-10
SCF conv_tol_grad = None
SCF ddm_tol = 1e-12
SCF max_cycles = 9999
direct_scf = True
direct_scf_tol = 1e-12
chkfile to save SCF result = out.chk
max_memory 32000 MB (current use 91 MB)
number electrons alpha = 5  beta = 2
irrep_nelec {'Ag': 4, 'B3u': 1, 'B2u': 1, 'B1u': 1}
Freeze 7 electrons in irreps ['Ag', 'B3u', 'B2u', 'B1u']
    0 free electrons in irreps B1g B2g B3g Au
cond(S) = 1377069.4313096176
Set gradient conv threshold to 1e-05
Spherically averaged atomic HF for {'O'}


******** <class 'pyscf.scf.atom_hf.AtomSphAverageRHF'> ********
method = AtomSphAverageRHF
initial guess = minao
damping factor = 0
level_shift factor = 0
DIIS = <class 'pyscf.scf.diis.CDIIS'>
diis_start_cycle = 1
diis_space = 8
diis_damp = 0
SCF conv_tol = 1e-09
SCF conv_tol_grad = None
SCF ddm_tol = 1e-10
SCF max_cycles = 50
direct_scf = True
direct_scf_tol = 1e-13
chkfile to save SCF result = /tmp/tmpnj4omtof
max_memory 32000 MB (current use 94 MB)
atom = O
Set gradient conv threshold to 3.16228e-05
Initial guess from minao.
Nelec from initial guess = 7.999999198541795
E1 = -103.09226413007801  E_coul = 28.805808396011994
init E= -74.286455734066
l = 0  e_0 = -20.7014775
l = 0  e_1 = -1.26311633
l = 0  e_2 = 0.123351068
l = 0  e_3 = 0.731561858
l = 0  e_4 = 2.78884327
l = 0  e_5 = 9.1554845
l = 0  e_6 = 28.0489831
l = 0  e_7 = 80.7725921
l = 0  e_8 = 218.554405
l = 0  e_9 = 582.11409
l = 0  e_10 = 2067.62359
l = 1  e_0 = -0.391059303
l = 1  e_1 = 0.109210972
l = 1  e_2 = 0.495377964
l = 1  e_3 = 1.63469531
l = 1  e_4 = 4.73124951
l = 1  e_5 = 13.2414355
l = 1  e_6 = 37.7859383
l = 1  e_7 = 107.060089
l = 1  e_8 = 298.261366
l = 1  e_9 = 836.993431
l = 2  e_0 = 0.398966074
l = 2  e_1 = 1.24846813
l = 2  e_2 = 3.22145841
l = 2  e_3 = 8.19636488
l = 2  e_4 = 21.4870863
l = 2  e_5 = 60.8411147
l = 2  e_6 = 181.01114
l = 2  e_7 = 556.355232
l = 3  e_0 = 0.96760691
l = 3  e_1 = 2.85154565
l = 3  e_2 = 7.3310232
l = 3  e_3 = 19.0162914
l = 3  e_4 = 71.6609862
l = 3  e_5 = 291.335468
l = 4  e_0 = 2.59237621
l = 4  e_1 = 7.01965294
l = 4  e_2 = 18.995277
l = 4  e_3 = 245.609116
l = 5  e_0 = 6.14802933
l = 5  e_1 = 16.1550059
    CPU time for initialize scf      5.83 sec, wall time      1.84 sec
l = 0  e_0 = -20.7014775
l = 0  e_1 = -1.26311633
l = 0  e_2 = 0.123351068
l = 0  e_3 = 0.731561858
l = 0  e_4 = 2.78884327
l = 0  e_5 = 9.1554845
l = 0  e_6 = 28.0489831
l = 0  e_7 = 80.7725921
l = 0  e_8 = 218.554405
l = 0  e_9 = 582.11409
l = 0  e_10 = 2067.62359
l = 1  e_0 = -0.391059303
l = 1  e_1 = 0.109210972
l = 1  e_2 = 0.495377964
l = 1  e_3 = 1.63469531
l = 1  e_4 = 4.73124951
l = 1  e_5 = 13.2414355
l = 1  e_6 = 37.7859383
l = 1  e_7 = 107.060089
l = 1  e_8 = 298.261366
l = 1  e_9 = 836.993431
l = 2  e_0 = 0.398966074
l = 2  e_1 = 1.24846813
l = 2  e_2 = 3.22145841
l = 2  e_3 = 8.19636488
l = 2  e_4 = 21.4870863
l = 2  e_5 = 60.8411147
l = 2  e_6 = 181.01114
l = 2  e_7 = 556.355232
l = 3  e_0 = 0.96760691
l = 3  e_1 = 2.85154565
l = 3  e_2 = 7.3310232
l = 3  e_3 = 19.0162914
l = 3  e_4 = 71.6609862
l = 3  e_5 = 291.335468
l = 4  e_0 = 2.59237621
l = 4  e_1 = 7.01965294
l = 4  e_2 = 18.995277
l = 4  e_3 = 245.609116
l = 5  e_0 = 6.14802933
l = 5  e_1 = 16.1550059
l = 0  occ = 2 + 0
l = 1  occ = 0 + 1.333
l = 2  occ = 0 + 0
l = 3  occ = 0 + 0
E1 = -102.38752109477518  E_coul = 28.091752139283315
cycle= 1 E= -74.2957689554919  delta_E= -0.00931  |g|=    0  |ddm|= 0.391
    CPU time for cycle= 1      0.59 sec, wall time      0.15 sec
diis-norm(errvec)=0.135622
diis-c [-0.01839333  1.        ]
l = 0  e_0 = -20.8762544
l = 0  e_1 = -1.33252739
l = 0  e_2 = 0.118977913
l = 0  e_3 = 0.7132864
l = 0  e_4 = 2.74215142
l = 0  e_5 = 9.06520976
l = 0  e_6 = 27.9147418
l = 0  e_7 = 80.6084211
l = 0  e_8 = 218.372945
l = 0  e_9 = 581.919724
l = 0  e_10 = 2067.41566
l = 1  e_0 = -0.447195001
l = 1  e_1 = 0.107735263
l = 1  e_2 = 0.484832911
l = 1  e_3 = 1.60163312
l = 1  e_4 = 4.66261904
l = 1  e_5 = 13.1301177
l = 1  e_6 = 37.6369605
l = 1  e_7 = 106.887705
l = 1  e_8 = 298.074755
l = 1  e_9 = 836.794582
l = 2  e_0 = 0.395488829
l = 2  e_1 = 1.22952901
l = 2  e_2 = 3.1772928
l = 2  e_3 = 8.11518758
l = 2  e_4 = 21.3635917
l = 2  e_5 = 60.6827047
l = 2  e_6 = 180.832431
l = 2  e_7 = 556.16277
l = 3  e_0 = 0.963654536
l = 3  e_1 = 2.82989611
l = 3  e_2 = 7.27294667
l = 3  e_3 = 18.9086936
l = 3  e_4 = 71.499631
l = 3  e_5 = 291.151913
l = 4  e_0 = 2.58236336
l = 4  e_1 = 6.98081624
l = 4  e_2 = 18.9027941
l = 4  e_3 = 245.429691
l = 5  e_0 = 6.12544674
l = 5  e_1 = 16.0894789
l = 0  occ = 2 + 0
l = 1  occ = 0 + 1.333
l = 2  occ = 0 + 0
l = 3  occ = 0 + 0
E1 = -102.75694524447934  E_coul = 28.45992402045349
cycle= 2 E= -74.2970212240259  delta_E= -0.00125  |g|=    0  |ddm|= 0.091
    CPU time for cycle= 2      0.61 sec, wall time      0.18 sec
diis-norm(errvec)=0.0589491
diis-c [-3.10633653e-04  2.94941877e-01  7.05058123e-01]
l = 0  e_0 = -20.8114801
l = 0  e_1 = -1.31014466
l = 0  e_2 = 0.120397965
l = 0  e_3 = 0.718953462
l = 0  e_4 = 2.7579983
l = 0  e_5 = 9.09765939
l = 0  e_6 = 27.9641234
l = 0  e_7 = 80.6692882
l = 0  e_8 = 218.440391
l = 0  e_9 = 581.991516
l = 0  e_10 = 2067.49039
l = 1  e_0 = -0.425760165
l = 1  e_1 = 0.108336728
l = 1  e_2 = 0.488960137
l = 1  e_3 = 1.61406837
l = 1  e_4 = 4.68805337
l = 1  e_5 = 13.1711685
l = 1  e_6 = 37.6919007
l = 1  e_7 = 106.951524
l = 1  e_8 = 298.144032
l = 1  e_9 = 836.86768
l = 2  e_0 = 0.396775616
l = 2  e_1 = 1.23632018
l = 2  e_2 = 3.19348784
l = 2  e_3 = 8.14506827
l = 2  e_4 = 21.4093295
l = 2  e_5 = 60.7414036
l = 2  e_6 = 180.898901
l = 2  e_7 = 556.234281
l = 3  e_0 = 0.965109961
l = 3  e_1 = 2.83762712
l = 3  e_2 = 7.29410029
l = 3  e_3 = 18.948441
l = 3  e_4 = 71.5594071
l = 3  e_5 = 291.220355
l = 4  e_0 = 2.58593239
l = 4  e_1 = 6.99474202
l = 4  e_2 = 18.9368412
l = 4  e_3 = 245.496391
l = 5  e_0 = 6.13341983
l = 5  e_1 = 16.1133057
l = 0  occ = 2 + 0
l = 1  occ = 0 + 1.333
l = 2  occ = 0 + 0
l = 3  occ = 0 + 0
E1 = -102.62485142958546  E_coul = 28.327446146252555
cycle= 3 E= -74.2974052833329  delta_E= -0.000384  |g|=    0  |ddm|= 0.027
    CPU time for cycle= 3      0.59 sec, wall time      0.15 sec
diis-norm(errvec)=0.00671267
diis-c [-1.96828114e-06 -9.61917212e-02 -1.04636386e-01  1.20082811e+00]
l = 0  e_0 = -20.8148853
l = 0  e_1 = -1.31229786
l = 0  e_2 = 0.120250694
l = 0  e_3 = 0.718356839
l = 0  e_4 = 2.75680007
l = 0  e_5 = 9.09569996
l = 0  e_6 = 27.9613866
l = 0  e_7 = 80.6660735
l = 0  e_8 = 218.437128
l = 0  e_9 = 581.988497
l = 0  e_10 = 2067.48774
l = 1  e_0 = -0.42668342
l = 1  e_1 = 0.108319534
l = 1  e_2 = 0.488781229
l = 1  e_3 = 1.61347062
l = 1  e_4 = 4.68674949
l = 1  e_5 = 13.1689645
l = 1  e_6 = 37.6889089
l = 1  e_7 = 106.948187
l = 1  e_8 = 298.140785
l = 1  e_9 = 836.864756
l = 2  e_0 = 0.396695284
l = 2  e_1 = 1.23591739
l = 2  e_2 = 3.19261454
l = 2  e_3 = 8.14347551
l = 2  e_4 = 21.4068711
l = 2  e_5 = 60.7381814
l = 2  e_6 = 180.895474
l = 2  e_7 = 556.231151
l = 3  e_0 = 0.965018441
l = 3  e_1 = 2.8371593
l = 3  e_2 = 7.29294985
l = 3  e_3 = 18.9463258
l = 3  e_4 = 71.5560729
l = 3  e_5 = 291.216901
l = 4  e_0 = 2.58569661
l = 4  e_1 = 6.99393596
l = 4  e_2 = 18.9350493
l = 4  e_3 = 245.492778
l = 5  e_0 = 6.13290962
l = 5  e_1 = 16.1120174
l = 0  occ = 2 + 0
l = 1  occ = 0 + 1.333
l = 2  occ = 0 + 0
l = 3  occ = 0 + 0
E1 = -102.63270046796484  E_coul = 28.335290781046606
cycle= 4 E= -74.2974096869182  delta_E= -4.4e-06  |g|=    0  |ddm|= 0.00499
    CPU time for cycle= 4      0.60 sec, wall time      0.15 sec
diis-norm(errvec)=0.000264311
diis-c [-4.02898190e-09  1.39113454e-03  1.94503767e-03 -5.40978167e-02
  1.05076164e+00]
l = 0  e_0 = -20.8150245
l = 0  e_1 = -1.31239619
l = 0  e_2 = 0.120233522
l = 0  e_3 = 0.718315374
l = 0  e_4 = 2.75672566
l = 0  e_5 = 9.09559498
l = 0  e_6 = 27.9612594
l = 0  e_7 = 80.6659382
l = 0  e_8 = 218.437002
l = 0  e_9 = 581.988395
l = 0  e_10 = 2067.48767
l = 1  e_0 = -0.426737613
l = 1  e_1 = 0.108315639
l = 1  e_2 = 0.488760204
l = 1  e_3 = 1.61342206
l = 1  e_4 = 4.68666893
l = 1  e_5 = 13.1688536
l = 1  e_6 = 37.6887767
l = 1  e_7 = 106.948051
l = 1  e_8 = 298.140664
l = 1  e_9 = 836.864663
l = 2  e_0 = 0.396681813
l = 2  e_1 = 1.23588248
l = 2  e_2 = 3.19255007
l = 2  e_3 = 8.14338146
l = 2  e_4 = 21.4067502
l = 2  e_5 = 60.7380412
l = 2  e_6 = 180.895336
l = 2  e_7 = 556.231041
l = 3  e_0 = 0.965002107
l = 3  e_1 = 2.83711394
l = 3  e_2 = 7.29287038
l = 3  e_3 = 18.946214
l = 3  e_4 = 71.5559279
l = 3  e_5 = 291.216766
l = 4  e_0 = 2.5856648
l = 4  e_1 = 6.99386968
l = 4  e_2 = 18.9349466
l = 4  e_3 = 245.492631
l = 5  e_0 = 6.13285704
l = 5  e_1 = 16.1119305
l = 0  occ = 2 + 0
l = 1  occ = 0 + 1.333
l = 2  occ = 0 + 0
l = 3  occ = 0 + 0
E1 = -102.63301383913343  E_coul = 28.335604143973878
cycle= 5 E= -74.2974096951595  delta_E= -8.24e-09  |g|=    0  |ddm|= 0.000158
    CPU time for cycle= 5      0.59 sec, wall time      0.15 sec
diis-norm(errvec)=1.12034e-05
diis-c [-1.37696717e-11 -8.90200857e-05 -2.01749636e-04  7.75638605e-03
 -1.99122511e-01  1.19165689e+00]
l = 0  e_0 = -20.815026
l = 0  e_1 = -1.31239947
l = 0  e_2 = 0.120231931
l = 0  e_3 = 0.718313552
l = 0  e_4 = 2.75672288
l = 0  e_5 = 9.09559254
l = 0  e_6 = 27.9612577
l = 0  e_7 = 80.6659366
l = 0  e_8 = 218.437
l = 0  e_9 = 581.988393
l = 0  e_10 = 2067.48766
l = 1  e_0 = -0.426739708
l = 1  e_1 = 0.10831531
l = 1  e_2 = 0.488758714
l = 1  e_3 = 1.61341957
l = 1  e_4 = 4.68666614
l = 1  e_5 = 13.1688514
l = 1  e_6 = 37.688775
l = 1  e_7 = 106.94805
l = 1  e_8 = 298.140662
l = 1  e_9 = 836.864661
l = 2  e_0 = 0.39668022
l = 2  e_1 = 1.23588028
l = 2  e_2 = 3.19254693
l = 2  e_3 = 8.14337888
l = 2  e_4 = 21.4067484
l = 2  e_5 = 60.7380397
l = 2  e_6 = 180.895335
l = 2  e_7 = 556.231039
l = 3  e_0 = 0.965000198
l = 3  e_1 = 2.83711072
l = 3  e_2 = 7.29286726
l = 3  e_3 = 18.946212
l = 3  e_4 = 71.5559265
l = 3  e_5 = 291.216764
l = 4  e_0 = 2.58566168
l = 4  e_1 = 6.99386607
l = 4  e_2 = 18.9349443
l = 4  e_3 = 245.49263
l = 5  e_0 = 6.13285308
l = 5  e_1 = 16.1119275
l = 0  occ = 2 + 0
l = 1  occ = 0 + 1.333
l = 2  occ = 0 + 0
l = 3  occ = 0 + 0
E1 = -102.63300173095878  E_coul = 28.335592035733043
cycle= 6 E= -74.2974096952257  delta_E= -6.62e-11  |g|=    0  |ddm|= 9.51e-06
    CPU time for cycle= 6      0.59 sec, wall time      0.15 sec
diis-norm(errvec)=1.38374e-06
diis-c [-9.77688088e-14 -2.77486909e-06  1.65052594e-05 -2.05775928e-04
  5.17749097e-03 -6.77822286e-02  1.06279678e+00]
l = 0  e_0 = -20.8150271
l = 0  e_1 = -1.31240015
l = 0  e_2 = 0.120231821
l = 0  e_3 = 0.718313312
l = 0  e_4 = 2.75672234
l = 0  e_5 = 9.0955917
l = 0  e_6 = 27.9612567
l = 0  e_7 = 80.6659355
l = 0  e_8 = 218.436999
l = 0  e_9 = 581.988392
l = 0  e_10 = 2067.48766
l = 1  e_0 = -0.426740275
l = 1  e_1 = 0.10831528
l = 1  e_2 = 0.488758551
l = 1  e_3 = 1.61341916
l = 1  e_4 = 4.68666545
l = 1  e_5 = 13.1688505
l = 1  e_6 = 37.688774
l = 1  e_7 = 106.948049
l = 1  e_8 = 298.140661
l = 1  e_9 = 836.864659
l = 2  e_0 = 0.396680113
l = 2  e_1 = 1.23587999
l = 2  e_2 = 3.19254638
l = 2  e_3 = 8.14337808
l = 2  e_4 = 21.4067473
l = 2  e_5 = 60.7380386
l = 2  e_6 = 180.895334
l = 2  e_7 = 556.231038
l = 3  e_0 = 0.965000072
l = 3  e_1 = 2.83711035
l = 3  e_2 = 7.29286658
l = 3  e_3 = 18.946211
l = 3  e_4 = 71.5559254
l = 3  e_5 = 291.216763
l = 4  e_0 = 2.58566144
l = 4  e_1 = 6.99386552
l = 4  e_2 = 18.9349434
l = 4  e_3 = 245.492629
l = 5  e_0 = 6.13285267
l = 5  e_1 = 16.1119267
l = 0  occ = 2 + 0
l = 1  occ = 0 + 1.333
l = 2  occ = 0 + 0
l = 3  occ = 0 + 0
E1 = -102.63300373295795  E_coul = 28.335594037731646
cycle= 7 E= -74.2974096952263  delta_E= -5.54e-13  |g|=    0  |ddm|= 8.21e-07
    CPU time for cycle= 7      0.60 sec, wall time      0.15 sec
diis-norm(errvec)=3.72112e-08
diis-c [-2.82910040e-16  6.37593202e-07 -5.81222404e-07 -7.81820614e-06
  2.60495545e-04  2.00702196e-03 -1.04100531e-01  1.10184077e+00]
l = 0  e_0 = -20.8150271
l = 0  e_1 = -1.31240016
l = 0  e_2 = 0.12023182
l = 0  e_3 = 0.71831331
l = 0  e_4 = 2.75672234
l = 0  e_5 = 9.0955917
l = 0  e_6 = 27.9612566
l = 0  e_7 = 80.6659355
l = 0  e_8 = 218.436999
l = 0  e_9 = 581.988392
l = 0  e_10 = 2067.48766
l = 1  e_0 = -0.42674028
l = 1  e_1 = 0.108315279
l = 1  e_2 = 0.488758549
l = 1  e_3 = 1.61341916
l = 1  e_4 = 4.68666545
l = 1  e_5 = 13.1688505
l = 1  e_6 = 37.6887739
l = 1  e_7 = 106.948049
l = 1  e_8 = 298.140661
l = 1  e_9 = 836.864659
l = 2  e_0 = 0.396680111
l = 2  e_1 = 1.23587999
l = 2  e_2 = 3.19254638
l = 2  e_3 = 8.14337807
l = 2  e_4 = 21.4067473
l = 2  e_5 = 60.7380386
l = 2  e_6 = 180.895334
l = 2  e_7 = 556.231038
l = 3  e_0 = 0.96500007
l = 3  e_1 = 2.83711035
l = 3  e_2 = 7.29286657
l = 3  e_3 = 18.946211
l = 3  e_4 = 71.5559254
l = 3  e_5 = 291.216763
l = 4  e_0 = 2.58566144
l = 4  e_1 = 6.99386551
l = 4  e_2 = 18.9349434
l = 4  e_3 = 245.492629
l = 5  e_0 = 6.13285267
l = 5  e_1 = 16.1119267
l = 0  occ = 2 + 0
l = 1  occ = 0 + 1.333
l = 2  occ = 0 + 0
l = 3  occ = 0 + 0
E1 = -102.63300371564102  E_coul = 28.33559402041508
cycle= 8 E= -74.297409695226  delta_E= 3.41e-13  |g|=    0  |ddm|= 2.57e-08
    CPU time for cycle= 8      0.59 sec, wall time      0.15 sec
diis-norm(errvec)=1.74875e-09
Linear dependence found in DIIS error vectors.
diis-c [-1.15495803e-15  2.79065431e-07 -1.38898117e-07 -5.31807484e-06
  1.62822765e-04  4.32351407e-04 -4.05343329e-02  4.91898669e-01
  5.48045668e-01]
l = 0  e_0 = -20.8150271
l = 0  e_1 = -1.31240016
l = 0  e_2 = 0.12023182
l = 0  e_3 = 0.71831331
l = 0  e_4 = 2.75672234
l = 0  e_5 = 9.0955917
l = 0  e_6 = 27.9612566
l = 0  e_7 = 80.6659355
l = 0  e_8 = 218.436999
l = 0  e_9 = 581.988392
l = 0  e_10 = 2067.48766
l = 1  e_0 = -0.42674028
l = 1  e_1 = 0.108315279
l = 1  e_2 = 0.488758549
l = 1  e_3 = 1.61341916
l = 1  e_4 = 4.68666545
l = 1  e_5 = 13.1688505
l = 1  e_6 = 37.6887739
l = 1  e_7 = 106.948049
l = 1  e_8 = 298.140661
l = 1  e_9 = 836.864659
l = 2  e_0 = 0.396680111
l = 2  e_1 = 1.23587999
l = 2  e_2 = 3.19254638
l = 2  e_3 = 8.14337807
l = 2  e_4 = 21.4067473
l = 2  e_5 = 60.7380386
l = 2  e_6 = 180.895334
l = 2  e_7 = 556.231038
l = 3  e_0 = 0.96500007
l = 3  e_1 = 2.83711035
l = 3  e_2 = 7.29286657
l = 3  e_3 = 18.946211
l = 3  e_4 = 71.5559254
l = 3  e_5 = 291.216763
l = 4  e_0 = 2.58566144
l = 4  e_1 = 6.99386551
l = 4  e_2 = 18.9349434
l = 4  e_3 = 245.492629
l = 5  e_0 = 6.13285267
l = 5  e_1 = 16.1119267
l = 0  occ = 2 + 0
l = 1  occ = 0 + 1.333
l = 2  occ = 0 + 0
l = 3  occ = 0 + 0
E1 = -102.63300371608983  E_coul = 28.335594020863695
cycle= 9 E= -74.2974096952261  delta_E= -1.85e-13  |g|=    0  |ddm|= 9.42e-10
    CPU time for cycle= 9      0.59 sec, wall time      0.15 sec
diis-norm(errvec)=1.06267e-09
Linear dependence found in DIIS error vectors.
diis-c [-8.99642272e-16  3.55553970e-01 -4.11107079e-07  1.81345498e-06
  2.10179245e-05  8.71362857e-04 -3.08285739e-02  3.19113497e-01
  3.55267324e-01]
l = 0  e_0 = -20.8150271
l = 0  e_1 = -1.31240016
l = 0  e_2 = 0.12023182
l = 0  e_3 = 0.71831331
l = 0  e_4 = 2.75672234
l = 0  e_5 = 9.0955917
l = 0  e_6 = 27.9612566
l = 0  e_7 = 80.6659355
l = 0  e_8 = 218.436999
l = 0  e_9 = 581.988392
l = 0  e_10 = 2067.48766
l = 1  e_0 = -0.42674028
l = 1  e_1 = 0.108315279
l = 1  e_2 = 0.488758549
l = 1  e_3 = 1.61341916
l = 1  e_4 = 4.68666545
l = 1  e_5 = 13.1688505
l = 1  e_6 = 37.6887739
l = 1  e_7 = 106.948049
l = 1  e_8 = 298.140661
l = 1  e_9 = 836.864659
l = 2  e_0 = 0.396680111
l = 2  e_1 = 1.23587999
l = 2  e_2 = 3.19254638
l = 2  e_3 = 8.14337807
l = 2  e_4 = 21.4067473
l = 2  e_5 = 60.7380386
l = 2  e_6 = 180.895334
l = 2  e_7 = 556.231038
l = 3  e_0 = 0.96500007
l = 3  e_1 = 2.83711035
l = 3  e_2 = 7.29286657
l = 3  e_3 = 18.946211
l = 3  e_4 = 71.5559254
l = 3  e_5 = 291.216763
l = 4  e_0 = 2.58566144
l = 4  e_1 = 6.99386551
l = 4  e_2 = 18.9349434
l = 4  e_3 = 245.492629
l = 5  e_0 = 6.13285267
l = 5  e_1 = 16.1119267
l = 0  occ = 2 + 0
l = 1  occ = 0 + 1.333
l = 2  occ = 0 + 0
l = 3  occ = 0 + 0
E1 = -102.63300371509082  E_coul = 28.335594019864786
cycle= 10 E= -74.297409695226  delta_E= 9.95e-14  |g|=    0  |ddm|= 5.33e-10
    CPU time for cycle= 10      0.60 sec, wall time      0.15 sec
diis-norm(errvec)=9.37413e-10
Linear dependence found in DIIS error vectors.
diis-c [-3.89203392e-16  2.55696594e-01  2.55755084e-01 -4.26745472e-06
  1.62906236e-04 -6.61185196e-04 -9.97916566e-03  2.43472161e-01
  2.55557874e-01]
l = 0  e_0 = -20.8150271
l = 0  e_1 = -1.31240016
l = 0  e_2 = 0.12023182
l = 0  e_3 = 0.71831331
l = 0  e_4 = 2.75672234
l = 0  e_5 = 9.0955917
l = 0  e_6 = 27.9612566
l = 0  e_7 = 80.6659355
l = 0  e_8 = 218.436999
l = 0  e_9 = 581.988392
l = 0  e_10 = 2067.48766
l = 1  e_0 = -0.42674028
l = 1  e_1 = 0.108315279
l = 1  e_2 = 0.488758549
l = 1  e_3 = 1.61341916
l = 1  e_4 = 4.68666545
l = 1  e_5 = 13.1688505
l = 1  e_6 = 37.6887739
l = 1  e_7 = 106.948049
l = 1  e_8 = 298.140661
l = 1  e_9 = 836.864659
l = 2  e_0 = 0.396680111
l = 2  e_1 = 1.23587999
l = 2  e_2 = 3.19254638
l = 2  e_3 = 8.14337807
l = 2  e_4 = 21.4067473
l = 2  e_5 = 60.7380386
l = 2  e_6 = 180.895334
l = 2  e_7 = 556.231038
l = 3  e_0 = 0.96500007
l = 3  e_1 = 2.83711035
l = 3  e_2 = 7.29286657
l = 3  e_3 = 18.946211
l = 3  e_4 = 71.5559254
l = 3  e_5 = 291.216763
l = 4  e_0 = 2.58566144
l = 4  e_1 = 6.99386551
l = 4  e_2 = 18.9349434
l = 4  e_3 = 245.492629
l = 5  e_0 = 6.13285267
l = 5  e_1 = 16.1119267
l = 0  occ = 2 + 0
l = 1  occ = 0 + 1.333
l = 2  occ = 0 + 0
l = 3  occ = 0 + 0
E1 = -102.63300371558012  E_coul = 28.335594020353913
cycle= 11 E= -74.2974096952262  delta_E= -1.71e-13  |g|=    0  |ddm|= 1.77e-10
    CPU time for cycle= 11      0.60 sec, wall time      0.15 sec
diis-norm(errvec)=9.65245e-10
Linear dependence found in DIIS error vectors.
diis-c [-8.66256660e-16  2.03051993e-01  2.03072846e-01  2.03066375e-01
  3.72106881e-05 -4.96972092e-05 -7.61719429e-03  1.95489321e-01
  2.02949146e-01]
l = 0  e_0 = -20.8150271
l = 0  e_1 = -1.31240016
l = 0  e_2 = 0.12023182
l = 0  e_3 = 0.71831331
l = 0  e_4 = 2.75672234
l = 0  e_5 = 9.0955917
l = 0  e_6 = 27.9612566
l = 0  e_7 = 80.6659355
l = 0  e_8 = 218.436999
l = 0  e_9 = 581.988392
l = 0  e_10 = 2067.48766
l = 1  e_0 = -0.42674028
l = 1  e_1 = 0.108315279
l = 1  e_2 = 0.488758549
l = 1  e_3 = 1.61341916
l = 1  e_4 = 4.68666545
l = 1  e_5 = 13.1688505
l = 1  e_6 = 37.6887739
l = 1  e_7 = 106.948049
l = 1  e_8 = 298.140661
l = 1  e_9 = 836.864659
l = 2  e_0 = 0.396680111
l = 2  e_1 = 1.23587999
l = 2  e_2 = 3.19254638
l = 2  e_3 = 8.14337807
l = 2  e_4 = 21.4067473
l = 2  e_5 = 60.7380386
l = 2  e_6 = 180.895334
l = 2  e_7 = 556.231038
l = 3  e_0 = 0.96500007
l = 3  e_1 = 2.83711035
l = 3  e_2 = 7.29286657
l = 3  e_3 = 18.946211
l = 3  e_4 = 71.5559254
l = 3  e_5 = 291.216763
l = 4  e_0 = 2.58566144
l = 4  e_1 = 6.99386551
l = 4  e_2 = 18.9349434
l = 4  e_3 = 245.492629
l = 5  e_0 = 6.13285267
l = 5  e_1 = 16.1119267
l = 0  occ = 2 + 0
l = 1  occ = 0 + 1.333
l = 2  occ = 0 + 0
l = 3  occ = 0 + 0
E1 = -102.63300371366084  E_coul = 28.33559401843469
cycle= 12 E= -74.2974096952262  delta_E= 5.68e-14  |g|=    0  |ddm|= 8.89e-10
    CPU time for cycle= 12      0.60 sec, wall time      0.15 sec
diis-norm(errvec)=1.81922e-09
Linear dependence found in DIIS error vectors.
diis-c [-8.11417980e-16  1.67175101e-01  1.67124703e-01  1.67141228e-01
  1.67003993e-01  2.40344960e-05 -1.75056722e-03  1.66144019e-01
  1.67137488e-01]
l = 0  e_0 = -20.8150271
l = 0  e_1 = -1.31240016
l = 0  e_2 = 0.12023182
l = 0  e_3 = 0.71831331
l = 0  e_4 = 2.75672234
l = 0  e_5 = 9.0955917
l = 0  e_6 = 27.9612566
l = 0  e_7 = 80.6659355
l = 0  e_8 = 218.436999
l = 0  e_9 = 581.988392
l = 0  e_10 = 2067.48766
l = 1  e_0 = -0.42674028
l = 1  e_1 = 0.108315279
l = 1  e_2 = 0.488758549
l = 1  e_3 = 1.61341916
l = 1  e_4 = 4.68666545
l = 1  e_5 = 13.1688505
l = 1  e_6 = 37.6887739
l = 1  e_7 = 106.948049
l = 1  e_8 = 298.140661
l = 1  e_9 = 836.864659
l = 2  e_0 = 0.396680111
l = 2  e_1 = 1.23587999
l = 2  e_2 = 3.19254638
l = 2  e_3 = 8.14337807
l = 2  e_4 = 21.4067473
l = 2  e_5 = 60.7380386
l = 2  e_6 = 180.895334
l = 2  e_7 = 556.231038
l = 3  e_0 = 0.96500007
l = 3  e_1 = 2.83711035
l = 3  e_2 = 7.29286657
l = 3  e_3 = 18.946211
l = 3  e_4 = 71.5559254
l = 3  e_5 = 291.216763
l = 4  e_0 = 2.58566144
l = 4  e_1 = 6.99386551
l = 4  e_2 = 18.9349434
l = 4  e_3 = 245.492629
l = 5  e_0 = 6.13285267
l = 5  e_1 = 16.1119267
l = 0  occ = 2 + 0
l = 1  occ = 0 + 1.333
l = 2  occ = 0 + 0
l = 3  occ = 0 + 0
E1 = -102.63300371443295  E_coul = 28.335594019206923
cycle= 13 E= -74.297409695226  delta_E= 1.28e-13  |g|=    0  |ddm|= 7.63e-10
    CPU time for cycle= 13      0.59 sec, wall time      0.15 sec
diis-norm(errvec)=1.5379e-09
Linear dependence found in DIIS error vectors.
diis-c [-5.41333704e-17  1.43228491e-01  1.43185857e-01  1.43199827e-01
  1.43087755e-01  1.43145518e-01 -1.36905314e-03  1.42319161e-01
  1.43202445e-01]
l = 0  e_0 = -20.8150271
l = 0  e_1 = -1.31240016
l = 0  e_2 = 0.12023182
l = 0  e_3 = 0.71831331
l = 0  e_4 = 2.75672234
l = 0  e_5 = 9.0955917
l = 0  e_6 = 27.9612566
l = 0  e_7 = 80.6659355
l = 0  e_8 = 218.436999
l = 0  e_9 = 581.988392
l = 0  e_10 = 2067.48766
l = 1  e_0 = -0.42674028
l = 1  e_1 = 0.108315279
l = 1  e_2 = 0.488758549
l = 1  e_3 = 1.61341916
l = 1  e_4 = 4.68666545
l = 1  e_5 = 13.1688505
l = 1  e_6 = 37.6887739
l = 1  e_7 = 106.948049
l = 1  e_8 = 298.140661
l = 1  e_9 = 836.864659
l = 2  e_0 = 0.396680111
l = 2  e_1 = 1.23587999
l = 2  e_2 = 3.19254638
l = 2  e_3 = 8.14337807
l = 2  e_4 = 21.4067473
l = 2  e_5 = 60.7380386
l = 2  e_6 = 180.895334
l = 2  e_7 = 556.231038
l = 3  e_0 = 0.96500007
l = 3  e_1 = 2.83711035
l = 3  e_2 = 7.29286657
l = 3  e_3 = 18.946211
l = 3  e_4 = 71.5559254
l = 3  e_5 = 291.216763
l = 4  e_0 = 2.58566144
l = 4  e_1 = 6.99386551
l = 4  e_2 = 18.9349434
l = 4  e_3 = 245.492629
l = 5  e_0 = 6.13285267
l = 5  e_1 = 16.1119267
l = 0  occ = 2 + 0
l = 1  occ = 0 + 1.333
l = 2  occ = 0 + 0
l = 3  occ = 0 + 0
E1 = -102.63300371503367  E_coul = 28.33559401980766
cycle= 14 E= -74.297409695226  delta_E= 1.42e-14  |g|=    0  |ddm|= 1.33e-10
    CPU time for cycle= 14      0.59 sec, wall time      0.15 sec
diis-norm(errvec)=1.23004e-09
Linear dependence found in DIIS error vectors.
diis-c [-2.89052492e-16  1.25000000e-01  1.25000000e-01  1.25000000e-01
  1.25000000e-01  1.25000000e-01  1.25000000e-01  1.25000000e-01
  1.25000000e-01]
l = 0  e_0 = -20.8150271
l = 0  e_1 = -1.31240016
l = 0  e_2 = 0.12023182
l = 0  e_3 = 0.71831331
l = 0  e_4 = 2.75672234
l = 0  e_5 = 9.0955917
l = 0  e_6 = 27.9612566
l = 0  e_7 = 80.6659355
l = 0  e_8 = 218.436999
l = 0  e_9 = 581.988392
l = 0  e_10 = 2067.48766
l = 1  e_0 = -0.42674028
l = 1  e_1 = 0.108315279
l = 1  e_2 = 0.488758549
l = 1  e_3 = 1.61341916
l = 1  e_4 = 4.68666545
l = 1  e_5 = 13.1688505
l = 1  e_6 = 37.6887739
l = 1  e_7 = 106.948049
l = 1  e_8 = 298.140661
l = 1  e_9 = 836.864659
l = 2  e_0 = 0.396680111
l = 2  e_1 = 1.23587999
l = 2  e_2 = 3.19254638
l = 2  e_3 = 8.14337807
l = 2  e_4 = 21.4067473
l = 2  e_5 = 60.7380386
l = 2  e_6 = 180.895334
l = 2  e_7 = 556.231038
l = 3  e_0 = 0.96500007
l = 3  e_1 = 2.83711035
l = 3  e_2 = 7.29286657
l = 3  e_3 = 18.946211
l = 3  e_4 = 71.5559254
l = 3  e_5 = 291.216763
l = 4  e_0 = 2.58566144
l = 4  e_1 = 6.99386551
l = 4  e_2 = 18.9349434
l = 4  e_3 = 245.492629
l = 5  e_0 = 6.13285267
l = 5  e_1 = 16.1119267
l = 0  occ = 2 + 0
l = 1  occ = 0 + 1.333
l = 2  occ = 0 + 0
l = 3  occ = 0 + 0
E1 = -102.63300371676937  E_coul = 28.33559402154329
cycle= 15 E= -74.2974096952261  delta_E= -7.11e-14  |g|=    0  |ddm|= 3.45e-10
    CPU time for cycle= 15      0.60 sec, wall time      0.15 sec
diis-norm(errvec)=9.39348e-10
Linear dependence found in DIIS error vectors.
diis-c [-2.89052492e-16  1.25000000e-01  1.25000000e-01  1.25000000e-01
  1.25000000e-01  1.25000000e-01  1.25000000e-01  1.25000000e-01
  1.25000000e-01]
l = 0  e_0 = -20.8150271
l = 0  e_1 = -1.31240016
l = 0  e_2 = 0.12023182
l = 0  e_3 = 0.71831331
l = 0  e_4 = 2.75672234
l = 0  e_5 = 9.0955917
l = 0  e_6 = 27.9612566
l = 0  e_7 = 80.6659355
l = 0  e_8 = 218.436999
l = 0  e_9 = 581.988392
l = 0  e_10 = 2067.48766
l = 1  e_0 = -0.42674028
l = 1  e_1 = 0.108315279
l = 1  e_2 = 0.488758549
l = 1  e_3 = 1.61341916
l = 1  e_4 = 4.68666545
l = 1  e_5 = 13.1688505
l = 1  e_6 = 37.6887739
l = 1  e_7 = 106.948049
l = 1  e_8 = 298.140661
l = 1  e_9 = 836.864659
l = 2  e_0 = 0.396680111
l = 2  e_1 = 1.23587999
l = 2  e_2 = 3.19254638
l = 2  e_3 = 8.14337807
l = 2  e_4 = 21.4067473
l = 2  e_5 = 60.7380386
l = 2  e_6 = 180.895334
l = 2  e_7 = 556.231038
l = 3  e_0 = 0.96500007
l = 3  e_1 = 2.83711035
l = 3  e_2 = 7.29286657
l = 3  e_3 = 18.946211
l = 3  e_4 = 71.5559254
l = 3  e_5 = 291.216763
l = 4  e_0 = 2.58566144
l = 4  e_1 = 6.99386551
l = 4  e_2 = 18.9349434
l = 4  e_3 = 245.492629
l = 5  e_0 = 6.13285267
l = 5  e_1 = 16.1119267
l = 0  occ = 2 + 0
l = 1  occ = 0 + 1.333
l = 2  occ = 0 + 0
l = 3  occ = 0 + 0
E1 = -102.63300371689007  E_coul = 28.33559402166391
cycle= 16 E= -74.2974096952262  delta_E= -8.53e-14  |g|=    0  |ddm|= 5.59e-10
    CPU time for cycle= 16      0.59 sec, wall time      0.15 sec
diis-norm(errvec)=3.37298e-10
Linear dependence found in DIIS error vectors.
diis-c [-2.89052492e-16  1.25000000e-01  1.25000000e-01  1.25000000e-01
  1.25000000e-01  1.25000000e-01  1.25000000e-01  1.25000000e-01
  1.25000000e-01]
l = 0  e_0 = -20.8150271
l = 0  e_1 = -1.31240016
l = 0  e_2 = 0.12023182
l = 0  e_3 = 0.71831331
l = 0  e_4 = 2.75672234
l = 0  e_5 = 9.0955917
l = 0  e_6 = 27.9612566
l = 0  e_7 = 80.6659355
l = 0  e_8 = 218.436999
l = 0  e_9 = 581.988392
l = 0  e_10 = 2067.48766
l = 1  e_0 = -0.42674028
l = 1  e_1 = 0.108315279
l = 1  e_2 = 0.488758549
l = 1  e_3 = 1.61341916
l = 1  e_4 = 4.68666545
l = 1  e_5 = 13.1688505
l = 1  e_6 = 37.6887739
l = 1  e_7 = 106.948049
l = 1  e_8 = 298.140661
l = 1  e_9 = 836.864659
l = 2  e_0 = 0.396680111
l = 2  e_1 = 1.23587999
l = 2  e_2 = 3.19254638
l = 2  e_3 = 8.14337807
l = 2  e_4 = 21.4067473
l = 2  e_5 = 60.7380386
l = 2  e_6 = 180.895334
l = 2  e_7 = 556.231038
l = 3  e_0 = 0.96500007
l = 3  e_1 = 2.83711035
l = 3  e_2 = 7.29286657
l = 3  e_3 = 18.946211
l = 3  e_4 = 71.5559254
l = 3  e_5 = 291.216763
l = 4  e_0 = 2.58566144
l = 4  e_1 = 6.99386551
l = 4  e_2 = 18.9349434
l = 4  e_3 = 245.492629
l = 5  e_0 = 6.13285267
l = 5  e_1 = 16.1119267
l = 0  occ = 2 + 0
l = 1  occ = 0 + 1.333
l = 2  occ = 0 + 0
l = 3  occ = 0 + 0
E1 = -102.63300371679848  E_coul = 28.335594021572398
cycle= 17 E= -74.2974096952261  delta_E= 7.11e-14  |g|=    0  |ddm|= 4.89e-11
    CPU time for cycle= 17      0.59 sec, wall time      0.15 sec
l = 0  e_0 = -20.8150271
l = 0  e_1 = -1.31240016
l = 0  e_2 = 0.12023182
l = 0  e_3 = 0.71831331
l = 0  e_4 = 2.75672234
l = 0  e_5 = 9.0955917
l = 0  e_6 = 27.9612566
l = 0  e_7 = 80.6659355
l = 0  e_8 = 218.436999
l = 0  e_9 = 581.988392
l = 0  e_10 = 2067.48766
l = 1  e_0 = -0.42674028
l = 1  e_1 = 0.108315279
l = 1  e_2 = 0.488758549
l = 1  e_3 = 1.61341916
l = 1  e_4 = 4.68666545
l = 1  e_5 = 13.1688505
l = 1  e_6 = 37.6887739
l = 1  e_7 = 106.948049
l = 1  e_8 = 298.140661
l = 1  e_9 = 836.864659
l = 2  e_0 = 0.396680111
l = 2  e_1 = 1.23587999
l = 2  e_2 = 3.19254638
l = 2  e_3 = 8.14337807
l = 2  e_4 = 21.4067473
l = 2  e_5 = 60.7380386
l = 2  e_6 = 180.895334
l = 2  e_7 = 556.231038
l = 3  e_0 = 0.96500007
l = 3  e_1 = 2.83711035
l = 3  e_2 = 7.29286657
l = 3  e_3 = 18.946211
l = 3  e_4 = 71.5559254
l = 3  e_5 = 291.216763
l = 4  e_0 = 2.58566144
l = 4  e_1 = 6.99386551
l = 4  e_2 = 18.9349434
l = 4  e_3 = 245.492629
l = 5  e_0 = 6.13285267
l = 5  e_1 = 16.1119267
l = 0  occ = 2 + 0
l = 1  occ = 0 + 1.333
l = 2  occ = 0 + 0
l = 3  occ = 0 + 0
E1 = -102.63300371599712  E_coul = 28.335594020771232
Extra cycle  E= -74.2974096952259  delta_E= 1.99e-13  |g|=    0  |ddm|= 4.89e-11
    CPU time for scf_cycle     16.52 sec, wall time      4.55 sec
    CPU time for SCF     16.52 sec, wall time      4.55 sec
Atomic HF for atom  O  converged. SCF energy = -74.2974096952259

Atom O, E = -74.2974096952
Nelec from initial guess = (np.float64(3.9999999999999996), np.float64(3.9999999999999996))
E1 = -102.63300371599712  Ecoul = 28.335594020771232
init E= -74.2974096952259
    CPU time for initialize scf     22.94 sec, wall time      6.53 sec
alpha HOMO (B1u) = -0.426740280287007  LUMO (B2u) = 0.1083152790953
alpha irrep_nelec = [2, 0, 0, 0, 0, 1, 1, 1]
beta  irrep_nelec = [2, 0, 0, 0, 0, 0, 0, 0]
alpha-Ag nocc = 2  HOMO = -1.31240015617439  LUMO = 0.120231820203813
   mo_energy = [-2.08150271e+01 -1.31240016e+00  1.20231820e-01  3.96680111e-01
  3.96680111e-01  7.18313310e-01  1.23587999e+00  1.23587999e+00
  2.58566144e+00  2.58566144e+00  2.58566144e+00  2.75672234e+00
  3.19254638e+00  3.19254638e+00  6.99386551e+00  6.99386551e+00
  6.99386551e+00  8.14337807e+00  8.14337807e+00  9.09559170e+00
  1.89349434e+01  1.89349434e+01  1.89349434e+01  2.14067473e+01
  2.14067473e+01  2.79612566e+01  6.07380386e+01  6.07380386e+01
  8.06659355e+01  1.80895334e+02  1.80895334e+02  2.18436999e+02
  2.45492629e+02  2.45492629e+02  2.45492629e+02  5.56231038e+02
  5.56231038e+02  5.81988392e+02  2.06748766e+03]
alpha-B1g nocc = 0
   mo_energy = [3.96680111e-01 1.23587999e+00 2.58566144e+00 2.58566144e+00
 3.19254638e+00 6.99386551e+00 6.99386551e+00 8.14337807e+00
 1.89349434e+01 1.89349434e+01 2.14067473e+01 6.07380386e+01
 1.80895334e+02 2.45492629e+02 2.45492629e+02 5.56231038e+02]
alpha-B2g nocc = 0
   mo_energy = [3.96680111e-01 1.23587999e+00 2.58566144e+00 2.58566144e+00
 3.19254638e+00 6.99386551e+00 6.99386551e+00 8.14337807e+00
 1.89349434e+01 1.89349434e+01 2.14067473e+01 6.07380386e+01
 1.80895334e+02 2.45492629e+02 2.45492629e+02 5.56231038e+02]
alpha-B3g nocc = 0
   mo_energy = [3.96680111e-01 1.23587999e+00 2.58566144e+00 2.58566144e+00
 3.19254638e+00 6.99386551e+00 6.99386551e+00 8.14337807e+00
 1.89349434e+01 1.89349434e+01 2.14067473e+01 6.07380386e+01
 1.80895334e+02 2.45492629e+02 2.45492629e+02 5.56231038e+02]
alpha-Au nocc = 0
   mo_energy = [  0.96500007   2.83711035   6.13285267   6.13285267   7.29286657
  16.11192669  16.11192669  18.94621101  71.55592539 291.21676272]
alpha-B1u nocc = 1  HOMO = -0.426740280287007  LUMO = 0.108315279095399
   mo_energy = [-4.26740280e-01  1.08315279e-01  4.88758549e-01  9.65000070e-01
  9.65000070e-01  1.61341916e+00  2.83711035e+00  2.83711035e+00
  4.68666545e+00  6.13285267e+00  6.13285267e+00  6.13285267e+00
  7.29286657e+00  7.29286657e+00  1.31688505e+01  1.61119267e+01
  1.61119267e+01  1.61119267e+01  1.89462110e+01  1.89462110e+01
  3.76887739e+01  7.15559254e+01  7.15559254e+01  1.06948049e+02
  2.91216763e+02  2.91216763e+02  2.98140661e+02  8.36864659e+02]
alpha-B2u nocc = 1  HOMO = -0.426740280287064  LUMO = 0.1083152790953
   mo_energy = [-4.26740280e-01  1.08315279e-01  4.88758549e-01  9.65000070e-01
  9.65000070e-01  1.61341916e+00  2.83711035e+00  2.83711035e+00
  4.68666545e+00  6.13285267e+00  6.13285267e+00  6.13285267e+00
  7.29286657e+00  7.29286657e+00  1.31688505e+01  1.61119267e+01
  1.61119267e+01  1.61119267e+01  1.89462110e+01  1.89462110e+01
  3.76887739e+01  7.15559254e+01  7.15559254e+01  1.06948049e+02
  2.91216763e+02  2.91216763e+02  2.98140661e+02  8.36864659e+02]
alpha-B3u nocc = 1  HOMO = -0.426740280287013  LUMO = 0.108315279095326
   mo_energy = [-4.26740280e-01  1.08315279e-01  4.88758549e-01  9.65000070e-01
  9.65000070e-01  1.61341916e+00  2.83711035e+00  2.83711035e+00
  4.68666545e+00  6.13285267e+00  6.13285267e+00  6.13285267e+00
  7.29286657e+00  7.29286657e+00  1.31688505e+01  1.61119267e+01
  1.61119267e+01  1.61119267e+01  1.89462110e+01  1.89462110e+01
  3.76887739e+01  7.15559254e+01  7.15559254e+01  1.06948049e+02
  2.91216763e+02  2.91216763e+02  2.98140661e+02  8.36864659e+02]
beta-Ag nocc = 2  HOMO = -1.31240015617439  LUMO = 0.120231820203813
   mo_energy = [-2.08150271e+01 -1.31240016e+00  1.20231820e-01  3.96680111e-01
  3.96680111e-01  7.18313310e-01  1.23587999e+00  1.23587999e+00
  2.58566144e+00  2.58566144e+00  2.58566144e+00  2.75672234e+00
  3.19254638e+00  3.19254638e+00  6.99386551e+00  6.99386551e+00
  6.99386551e+00  8.14337807e+00  8.14337807e+00  9.09559170e+00
  1.89349434e+01  1.89349434e+01  1.89349434e+01  2.14067473e+01
  2.14067473e+01  2.79612566e+01  6.07380386e+01  6.07380386e+01
  8.06659355e+01  1.80895334e+02  1.80895334e+02  2.18436999e+02
  2.45492629e+02  2.45492629e+02  2.45492629e+02  5.56231038e+02
  5.56231038e+02  5.81988392e+02  2.06748766e+03]
beta-B1g nocc = 0
   mo_energy = [3.96680111e-01 1.23587999e+00 2.58566144e+00 2.58566144e+00
 3.19254638e+00 6.99386551e+00 6.99386551e+00 8.14337807e+00
 1.89349434e+01 1.89349434e+01 2.14067473e+01 6.07380386e+01
 1.80895334e+02 2.45492629e+02 2.45492629e+02 5.56231038e+02]
beta-B2g nocc = 0
   mo_energy = [3.96680111e-01 1.23587999e+00 2.58566144e+00 2.58566144e+00
 3.19254638e+00 6.99386551e+00 6.99386551e+00 8.14337807e+00
 1.89349434e+01 1.89349434e+01 2.14067473e+01 6.07380386e+01
 1.80895334e+02 2.45492629e+02 2.45492629e+02 5.56231038e+02]
beta-B3g nocc = 0
   mo_energy = [3.96680111e-01 1.23587999e+00 2.58566144e+00 2.58566144e+00
 3.19254638e+00 6.99386551e+00 6.99386551e+00 8.14337807e+00
 1.89349434e+01 1.89349434e+01 2.14067473e+01 6.07380386e+01
 1.80895334e+02 2.45492629e+02 2.45492629e+02 5.56231038e+02]
beta-Au nocc = 0
   mo_energy = [  0.96500007   2.83711035   6.13285267   6.13285267   7.29286657
  16.11192669  16.11192669  18.94621101  71.55592539 291.21676272]
beta-B1u nocc = 0
   mo_energy = [-4.26740280e-01  1.08315279e-01  4.88758549e-01  9.65000070e-01
  9.65000070e-01  1.61341916e+00  2.83711035e+00  2.83711035e+00
  4.68666545e+00  6.13285267e+00  6.13285267e+00  6.13285267e+00
  7.29286657e+00  7.29286657e+00  1.31688505e+01  1.61119267e+01
  1.61119267e+01  1.61119267e+01  1.89462110e+01  1.89462110e+01
  3.76887739e+01  7.15559254e+01  7.15559254e+01  1.06948049e+02
  2.91216763e+02  2.91216763e+02  2.98140661e+02  8.36864659e+02]
beta-B2u nocc = 0
   mo_energy = [-4.26740280e-01  1.08315279e-01  4.88758549e-01  9.65000070e-01
  9.65000070e-01  1.61341916e+00  2.83711035e+00  2.83711035e+00
  4.68666545e+00  6.13285267e+00  6.13285267e+00  6.13285267e+00
  7.29286657e+00  7.29286657e+00  1.31688505e+01  1.61119267e+01
  1.61119267e+01  1.61119267e+01  1.89462110e+01  1.89462110e+01
  3.76887739e+01  7.15559254e+01  7.15559254e+01  1.06948049e+02
  2.91216763e+02  2.91216763e+02  2.98140661e+02  8.36864659e+02]
beta-B3u nocc = 0
   mo_energy = [-4.26740280e-01  1.08315279e-01  4.88758549e-01  9.65000070e-01
  9.65000070e-01  1.61341916e+00  2.83711035e+00  2.83711035e+00
  4.68666545e+00  6.13285267e+00  6.13285267e+00  6.13285267e+00
  7.29286657e+00  7.29286657e+00  1.31688505e+01  1.61119267e+01
  1.61119267e+01  1.61119267e+01  1.89462110e+01  1.89462110e+01
  3.76887739e+01  7.15559254e+01  7.15559254e+01  1.06948049e+02
  2.91216763e+02  2.91216763e+02  2.98140661e+02  8.36864659e+02]
multiplicity <S^2> = 3.75  2S+1 = 4
E1 = -96.46723157151473  Ecoul = 22.253317100426734
cycle= 1 E= -74.213914471088  delta_E= 0.0835  |g|= 0.546  |ddm|= 0.606
    CPU time for cycle= 1      1.22 sec, wall time      0.50 sec
diis-norm(errvec)=0.771932
diis-c [-0.59587903  1.        ]
alpha HOMO (B1u) = -1.46985415816013  LUMO (Ag) = -0.163142009938001
alpha irrep_nelec = [2, 0, 0, 0, 0, 1, 1, 1]
beta  irrep_nelec = [2, 0, 0, 0, 0, 0, 0, 0]
alpha-Ag nocc = 2  HOMO = -2.23482569552104  LUMO = -0.163142009938001
   mo_energy = [-2.19014797e+01 -2.23482570e+00 -1.63142010e-01  9.77734895e-02
  9.77734895e-02  3.11142519e-01  7.49727282e-01  7.49727282e-01
  2.13388899e+00  2.15563640e+00  2.15563640e+00  2.15563640e+00
  2.52660606e+00  2.52660606e+00  6.36407315e+00  6.36407315e+00
  6.36407315e+00  7.31829522e+00  7.31829522e+00  8.27035254e+00
  1.80849757e+01  1.80849757e+01  1.80849757e+01  2.04591532e+01
  2.04591532e+01  2.70037982e+01  5.97156720e+01  5.97156720e+01
  7.96430014e+01  1.79842617e+02  1.79842617e+02  2.17387426e+02
  2.44432796e+02  2.44432796e+02  2.44432796e+02  5.55168578e+02
  5.55168578e+02  5.80928377e+02  2.06642567e+03]
alpha-B1g nocc = 0
   mo_energy = [9.77734895e-02 7.49727282e-01 2.15563640e+00 2.15563640e+00
 2.52660606e+00 6.36407315e+00 6.36407315e+00 7.31829522e+00
 1.80849757e+01 1.80849757e+01 2.04591532e+01 5.97156720e+01
 1.79842617e+02 2.44432796e+02 2.44432796e+02 5.55168578e+02]
alpha-B2g nocc = 0
   mo_energy = [9.77734895e-02 7.49727282e-01 2.15563640e+00 2.15563640e+00
 2.52660606e+00 6.36407315e+00 6.36407315e+00 7.31829522e+00
 1.80849757e+01 1.80849757e+01 2.04591532e+01 5.97156720e+01
 1.79842617e+02 2.44432796e+02 2.44432796e+02 5.55168578e+02]
alpha-B3g nocc = 0
   mo_energy = [9.77734895e-02 7.49727282e-01 2.15563640e+00 2.15563640e+00
 2.52660606e+00 6.36407315e+00 6.36407315e+00 7.31829522e+00
 1.80849757e+01 1.80849757e+01 2.04591532e+01 5.97156720e+01
 1.79842617e+02 2.44432796e+02 2.44432796e+02 5.55168578e+02]
alpha-Au nocc = 0
   mo_energy = [  0.63375958   2.31716682   5.59252054   5.59252054   6.56675418
  15.36401967  15.36401967  18.04333167  70.52213433 290.15605402]
alpha-B1u nocc = 1  HOMO = -1.46985415816013  LUMO = -0.102377580697592
   mo_energy = [-1.46985416e+00 -1.02377581e-01  1.48367546e-01  6.33759583e-01
  6.33759583e-01  1.06846339e+00  2.31716682e+00  2.31716682e+00
  3.94117780e+00  5.59252054e+00  5.59252054e+00  5.59252054e+00
  6.56675418e+00  6.56675418e+00  1.22688981e+01  1.53640197e+01
  1.53640197e+01  1.53640197e+01  1.80433317e+01  1.80433317e+01
  3.66927685e+01  7.05221343e+01  7.05221343e+01  1.05908279e+02
  2.90156054e+02  2.90156054e+02  2.97083786e+02  8.35801630e+02]
alpha-B2u nocc = 1  HOMO = -1.46985415816019  LUMO = -0.102377580697676
   mo_energy = [-1.46985416e+00 -1.02377581e-01  1.48367546e-01  6.33759583e-01
  6.33759583e-01  1.06846339e+00  2.31716682e+00  2.31716682e+00
  3.94117780e+00  5.59252054e+00  5.59252054e+00  5.59252054e+00
  6.56675418e+00  6.56675418e+00  1.22688981e+01  1.53640197e+01
  1.53640197e+01  1.53640197e+01  1.80433317e+01  1.80433317e+01
  3.66927685e+01  7.05221343e+01  7.05221343e+01  1.05908279e+02
  2.90156054e+02  2.90156054e+02  2.97083786e+02  8.35801630e+02]
alpha-B3u nocc = 1  HOMO = -1.46985415816015  LUMO = -0.102377580697601
   mo_energy = [-1.46985416e+00 -1.02377581e-01  1.48367546e-01  6.33759583e-01
  6.33759583e-01  1.06846339e+00  2.31716682e+00  2.31716682e+00
  3.94117780e+00  5.59252054e+00  5.59252054e+00  5.59252054e+00
  6.56675418e+00  6.56675418e+00  1.22688981e+01  1.53640197e+01
  1.53640197e+01  1.53640197e+01  1.80433317e+01  1.80433317e+01
  3.66927685e+01  7.05221343e+01  7.05221343e+01  1.05908279e+02
  2.90156054e+02  2.90156054e+02  2.97083786e+02  8.35801630e+02]
beta-Ag nocc = 2  HOMO = -1.76967723760953  LUMO = -0.135955240027486
   mo_energy = [-2.18050993e+01 -1.76967724e+00 -1.35955240e-01  1.23430169e-01
  1.23430169e-01  3.62832914e-01  8.44189976e-01  8.44189976e-01
  2.17564405e+00  2.17564405e+00  2.17564405e+00  2.22293490e+00
  2.66642687e+00  2.66642687e+00  6.41434691e+00  6.41434691e+00
  6.41434691e+00  7.44984256e+00  7.44984256e+00  8.36122607e+00
  1.81545530e+01  1.81545530e+01  1.81545530e+01  2.05484580e+01
  2.05484580e+01  2.70620377e+01  5.97591346e+01  5.97591346e+01
  7.96701088e+01  1.79857787e+02  1.79857787e+02  2.17397956e+02
  2.44447470e+02  2.44447470e+02  2.44447470e+02  5.55172576e+02
  5.55172576e+02  5.80931874e+02  2.06642686e+03]
beta-B1g nocc = 0
   mo_energy = [1.23430169e-01 8.44189976e-01 2.17564405e+00 2.17564405e+00
 2.66642687e+00 6.41434691e+00 6.41434691e+00 7.44984256e+00
 1.81545530e+01 1.81545530e+01 2.05484580e+01 5.97591346e+01
 1.79857787e+02 2.44447470e+02 2.44447470e+02 5.55172576e+02]
beta-B2g nocc = 0
   mo_energy = [1.23430169e-01 8.44189976e-01 2.17564405e+00 2.17564405e+00
 2.66642687e+00 6.41434691e+00 6.41434691e+00 7.44984256e+00
 1.81545530e+01 1.81545530e+01 2.05484580e+01 5.97591346e+01
 1.79857787e+02 2.44447470e+02 2.44447470e+02 5.55172576e+02]
beta-B3g nocc = 0
   mo_energy = [1.23430169e-01 8.44189976e-01 2.17564405e+00 2.17564405e+00
 2.66642687e+00 6.41434691e+00 6.41434691e+00 7.44984256e+00
 1.81545530e+01 1.81545530e+01 2.05484580e+01 5.97591346e+01
 1.79857787e+02 2.44447470e+02 2.44447470e+02 5.55172576e+02]
beta-Au nocc = 0
   mo_energy = [  0.64780117   2.37135544   5.61874572   5.61874572   6.65747226
  15.4108626   15.4108626   18.13145877  70.56634919 290.16634767]
beta-B1u nocc = 0
   mo_energy = [-5.83154566e-01 -8.57252136e-02  1.95512398e-01  6.47801167e-01
  6.47801167e-01  1.16634769e+00  2.37135544e+00  2.37135544e+00
  4.05686068e+00  5.61874572e+00  5.61874572e+00  5.61874572e+00
  6.65747226e+00  6.65747226e+00  1.23602496e+01  1.54108626e+01
  1.54108626e+01  1.54108626e+01  1.81314588e+01  1.81314588e+01
  3.67444385e+01  7.05663492e+01  7.05663492e+01  1.05930394e+02
  2.90166348e+02  2.90166348e+02  2.97091513e+02  8.35803868e+02]
beta-B2u nocc = 0
   mo_energy = [-5.83154566e-01 -8.57252136e-02  1.95512398e-01  6.47801167e-01
  6.47801167e-01  1.16634769e+00  2.37135544e+00  2.37135544e+00
  4.05686068e+00  5.61874572e+00  5.61874572e+00  5.61874572e+00
  6.65747226e+00  6.65747226e+00  1.23602496e+01  1.54108626e+01
  1.54108626e+01  1.54108626e+01  1.81314588e+01  1.81314588e+01
  3.67444385e+01  7.05663492e+01  7.05663492e+01  1.05930394e+02
  2.90166348e+02  2.90166348e+02  2.97091513e+02  8.35803868e+02]
beta-B3u nocc = 0
   mo_energy = [-5.83154566e-01 -8.57252136e-02  1.95512398e-01  6.47801167e-01
  6.47801167e-01  1.16634769e+00  2.37135544e+00  2.37135544e+00
  4.05686068e+00  5.61874572e+00  5.61874572e+00  5.61874572e+00
  6.65747226e+00  6.65747226e+00  1.23602496e+01  1.54108626e+01
  1.54108626e+01  1.54108626e+01  1.81314588e+01  1.81314588e+01
  3.67444385e+01  7.05663492e+01  7.05663492e+01  1.05930394e+02
  2.90166348e+02  2.90166348e+02  2.97091513e+02  8.35803868e+02]
multiplicity <S^2> = 3.7504024  2S+1 = 4.0002012
E1 = -98.57924440286688  Ecoul = 24.209131829960857
cycle= 2 E= -74.370112572906  delta_E= -0.156  |g|= 0.15  |ddm|= 0.397
    CPU time for cycle= 2      1.21 sec, wall time      0.44 sec
diis-norm(errvec)=0.212403
diis-c [-0.03609362  0.11264842  0.88735158]
alpha HOMO (B1u) = -1.33414466604187  LUMO (Ag) = -0.142543886424922
alpha irrep_nelec = [2, 0, 0, 0, 0, 1, 1, 1]
beta  irrep_nelec = [2, 0, 0, 0, 0, 0, 0, 0]
alpha-Ag nocc = 2  HOMO = -2.07925059955286  LUMO = -0.142543886424922
   mo_energy = [-2.14314304e+01 -2.07925060e+00 -1.42543886e-01  1.15697975e-01
  1.15697975e-01  3.51747063e-01  8.07708626e-01  8.07708626e-01
  2.18389082e+00  2.18389082e+00  2.18389082e+00  2.24090724e+00
  2.63431751e+00  2.63431751e+00  6.46639873e+00  6.46639873e+00
  6.46639873e+00  7.52277460e+00  7.52277460e+00  8.50112474e+00
  1.83325530e+01  1.83325530e+01  1.83325530e+01  2.07891338e+01
  2.07891338e+01  2.73664350e+01  6.01498355e+01  6.01498355e+01
  8.00943099e+01  1.80335609e+02  1.80335609e+02  2.17885863e+02
  2.44929663e+02  2.44929663e+02  2.44929663e+02  5.55693302e+02
  5.55693302e+02  5.81453802e+02  2.06696655e+03]
alpha-B1g nocc = 0
   mo_energy = [1.15697975e-01 8.07708626e-01 2.18389082e+00 2.18389082e+00
 2.63431751e+00 6.46639873e+00 6.46639873e+00 7.52277460e+00
 1.83325530e+01 1.83325530e+01 2.07891338e+01 6.01498355e+01
 1.80335609e+02 2.44929663e+02 2.44929663e+02 5.55693302e+02]
alpha-B2g nocc = 0
   mo_energy = [1.15697975e-01 8.07708626e-01 2.18389082e+00 2.18389082e+00
 2.63431751e+00 6.46639873e+00 6.46639873e+00 7.52277460e+00
 1.83325530e+01 1.83325530e+01 2.07891338e+01 6.01498355e+01
 1.80335609e+02 2.44929663e+02 2.44929663e+02 5.55693302e+02]
alpha-B3g nocc = 0
   mo_energy = [1.15697975e-01 8.07708626e-01 2.18389082e+00 2.18389082e+00
 2.63431751e+00 6.46639873e+00 6.46639873e+00 7.52277460e+00
 1.83325530e+01 1.83325530e+01 2.07891338e+01 6.01498355e+01
 1.80335609e+02 2.44929663e+02 2.44929663e+02 5.55693302e+02]
alpha-Au nocc = 0
   mo_energy = [  0.64733991   2.37725043   5.65199389   5.65199389   6.71742418
  15.53849466  15.53849466  18.32993465  70.96512039 290.66320521]
alpha-B1u nocc = 1  HOMO = -1.33414466604187  LUMO = -0.0937226780653919
   mo_energy = [-1.33414467e+00 -9.37226781e-02  1.72474095e-01  6.47339905e-01
  6.47339905e-01  1.14081560e+00  2.37725043e+00  2.37725043e+00
  4.10944909e+00  5.65199389e+00  5.65199389e+00  5.65199389e+00
  6.71742418e+00  6.71742418e+00  1.25618567e+01  1.55384947e+01
  1.55384947e+01  1.55384947e+01  1.83299347e+01  1.83299347e+01
  3.70971536e+01  7.09651204e+01  7.09651204e+01  1.06381489e+02
  2.90663205e+02  2.90663205e+02  2.97594580e+02  8.36334756e+02]
alpha-B2u nocc = 1  HOMO = -1.33414466604195  LUMO = -0.0937226780654153
   mo_energy = [-1.33414467e+00 -9.37226781e-02  1.72474095e-01  6.47339905e-01
  6.47339905e-01  1.14081560e+00  2.37725043e+00  2.37725043e+00
  4.10944909e+00  5.65199389e+00  5.65199389e+00  5.65199389e+00
  6.71742418e+00  6.71742418e+00  1.25618567e+01  1.55384947e+01
  1.55384947e+01  1.55384947e+01  1.83299347e+01  1.83299347e+01
  3.70971536e+01  7.09651204e+01  7.09651204e+01  1.06381489e+02
  2.90663205e+02  2.90663205e+02  2.97594580e+02  8.36334756e+02]
alpha-B3u nocc = 1  HOMO = -1.33414466604201  LUMO = -0.0937226780654076
   mo_energy = [-1.33414467e+00 -9.37226781e-02  1.72474095e-01  6.47339905e-01
  6.47339905e-01  1.14081560e+00  2.37725043e+00  2.37725043e+00
  4.10944909e+00  5.65199389e+00  5.65199389e+00  5.65199389e+00
  6.71742418e+00  6.71742418e+00  1.25618567e+01  1.55384947e+01
  1.55384947e+01  1.55384947e+01  1.83299347e+01  1.83299347e+01
  3.70971536e+01  7.09651204e+01  7.09651204e+01  1.06381489e+02
  2.90663205e+02  2.90663205e+02  2.97594580e+02  8.36334756e+02]
beta-Ag nocc = 2  HOMO = -1.56651858365017  LUMO = -0.125658806354119
   mo_energy = [-2.13063422e+01 -1.56651858e+00 -1.25658806e-01  1.29385016e-01
  1.29385016e-01  4.00694180e-01  8.87504538e-01  8.87504538e-01
  2.19684219e+00  2.19684219e+00  2.19684219e+00  2.34491015e+00
  2.79283369e+00  2.79283369e+00  6.51581823e+00  6.51581823e+00
  6.51581823e+00  7.68857464e+00  7.68857464e+00  8.61469570e+00
  1.84166332e+01  1.84166332e+01  1.84166332e+01  2.09049142e+01
  2.09049142e+01  2.74409108e+01  6.02070167e+01  6.02070167e+01
  8.01290644e+01  1.80355478e+02  1.80355478e+02  2.17899048e+02
  2.44949247e+02  2.44949247e+02  2.44949247e+02  5.55698224e+02
  5.55698224e+02  5.81457845e+02  2.06696771e+03]
beta-B1g nocc = 0
   mo_energy = [1.29385016e-01 8.87504538e-01 2.19684219e+00 2.19684219e+00
 2.79283369e+00 6.51581823e+00 6.51581823e+00 7.68857464e+00
 1.84166332e+01 1.84166332e+01 2.09049142e+01 6.02070167e+01
 1.80355478e+02 2.44949247e+02 2.44949247e+02 5.55698224e+02]
beta-B2g nocc = 0
   mo_energy = [1.29385016e-01 8.87504538e-01 2.19684219e+00 2.19684219e+00
 2.79283369e+00 6.51581823e+00 6.51581823e+00 7.68857464e+00
 1.84166332e+01 1.84166332e+01 2.09049142e+01 6.02070167e+01
 1.80355478e+02 2.44949247e+02 2.44949247e+02 5.55698224e+02]
beta-B3g nocc = 0
   mo_energy = [1.29385016e-01 8.87504538e-01 2.19684219e+00 2.19684219e+00
 2.79283369e+00 6.51581823e+00 6.51581823e+00 7.68857464e+00
 1.84166332e+01 1.84166332e+01 2.09049142e+01 6.02070167e+01
 1.80355478e+02 2.44949247e+02 2.44949247e+02 5.55698224e+02]
beta-Au nocc = 0
   mo_energy = [  0.65469173   2.42336988   5.67320084   5.67320084   6.81929228
  15.59044127  15.59044127  18.44104908  71.0235318  290.67676302]
beta-B1u nocc = 0
   mo_energy = [-3.99112690e-01 -7.42821096e-02  2.34745788e-01  6.54691734e-01
  6.54691734e-01  1.26860833e+00  2.42336988e+00  2.42336988e+00
  4.25761987e+00  5.67320084e+00  5.67320084e+00  5.67320084e+00
  6.81929228e+00  6.81929228e+00  1.26791908e+01  1.55904413e+01
  1.55904413e+01  1.55904413e+01  1.84410491e+01  1.84410491e+01
  3.71642974e+01  7.10235318e+01  7.10235318e+01  1.06410106e+02
  2.90676763e+02  2.90676763e+02  2.97604233e+02  8.36337244e+02]
beta-B2u nocc = 0
   mo_energy = [-3.99112690e-01 -7.42821096e-02  2.34745788e-01  6.54691734e-01
  6.54691734e-01  1.26860833e+00  2.42336988e+00  2.42336988e+00
  4.25761987e+00  5.67320084e+00  5.67320084e+00  5.67320084e+00
  6.81929228e+00  6.81929228e+00  1.26791908e+01  1.55904413e+01
  1.55904413e+01  1.55904413e+01  1.84410491e+01  1.84410491e+01
  3.71642974e+01  7.10235318e+01  7.10235318e+01  1.06410106e+02
  2.90676763e+02  2.90676763e+02  2.97604233e+02  8.36337244e+02]
beta-B3u nocc = 0
   mo_energy = [-3.99112690e-01 -7.42821096e-02  2.34745788e-01  6.54691734e-01
  6.54691734e-01  1.26860833e+00  2.42336988e+00  2.42336988e+00
  4.25761987e+00  5.67320084e+00  5.67320084e+00  5.67320084e+00
  6.81929228e+00  6.81929228e+00  1.26791908e+01  1.55904413e+01
  1.55904413e+01  1.55904413e+01  1.84410491e+01  1.84410491e+01
  3.71642974e+01  7.10235318e+01  7.10235318e+01  1.06410106e+02
  2.90676763e+02  2.90676763e+02  2.97604233e+02  8.36337244e+02]
multiplicity <S^2> = 3.7526558  2S+1 = 4.0013277
E1 = -98.44603053450285  Ecoul = 24.069895792216982
cycle= 3 E= -74.3761347422859  delta_E= -0.00602  |g|= 0.0346  |ddm|= 0.132
    CPU time for cycle= 3      1.22 sec, wall time      0.42 sec
diis-norm(errvec)=0.0489912
diis-c [-9.63654611e-04 -3.45619714e-02 -2.16956929e-01  1.25151890e+00]
alpha HOMO (B3u) = -1.32862931768979  LUMO (Ag) = -0.138961286981747
alpha irrep_nelec = [2, 0, 0, 0, 0, 1, 1, 1]
beta  irrep_nelec = [2, 0, 0, 0, 0, 0, 0, 0]
alpha-Ag nocc = 2  HOMO = -2.06915969412677  LUMO = -0.138961286981747
   mo_energy = [-2.14080491e+01 -2.06915969e+00 -1.38961287e-01  1.19365788e-01
  1.19365788e-01  3.57774229e-01  8.16488821e-01  8.16488821e-01
  2.18972351e+00  2.18972351e+00  2.18972351e+00  2.25263617e+00
  2.64496106e+00  2.64496106e+00  6.48095124e+00  6.48095124e+00
  6.48095124e+00  7.54102680e+00  7.54102680e+00  8.52125450e+00
  1.83560608e+01  1.83560608e+01  1.83560608e+01  2.08142563e+01
  2.08142563e+01  2.73915501e+01  6.01769512e+01  6.01769512e+01
  8.01189993e+01  1.80359098e+02  1.80359098e+02  2.17906335e+02
  2.44955488e+02  2.44955488e+02  2.44955488e+02  5.55709070e+02
  5.55709070e+02  5.81467876e+02  2.06697378e+03]
alpha-B1g nocc = 0
   mo_energy = [1.19365788e-01 8.16488821e-01 2.18972351e+00 2.18972351e+00
 2.64496106e+00 6.48095124e+00 6.48095124e+00 7.54102680e+00
 1.83560608e+01 1.83560608e+01 2.08142563e+01 6.01769512e+01
 1.80359098e+02 2.44955488e+02 2.44955488e+02 5.55709070e+02]
alpha-B2g nocc = 0
   mo_energy = [1.19365788e-01 8.16488821e-01 2.18972351e+00 2.18972351e+00
 2.64496106e+00 6.48095124e+00 6.48095124e+00 7.54102680e+00
 1.83560608e+01 1.83560608e+01 2.08142563e+01 6.01769512e+01
 1.80359098e+02 2.44955488e+02 2.44955488e+02 5.55709070e+02]
alpha-B3g nocc = 0
   mo_energy = [1.19365788e-01 8.16488821e-01 2.18972351e+00 2.18972351e+00
 2.64496106e+00 6.48095124e+00 6.48095124e+00 7.54102680e+00
 1.83560608e+01 1.83560608e+01 2.08142563e+01 6.01769512e+01
 1.80359098e+02 2.44955488e+02 2.44955488e+02 5.55709070e+02]
alpha-Au nocc = 0
   mo_energy = [  0.650385     2.38703849   5.66258334   5.66258334   6.7342
  15.55907481  15.55907481  18.35408141  70.99331756 290.68549762]
alpha-B1u nocc = 1  HOMO = -1.32862931768982  LUMO = -0.0925673008097268
   mo_energy = [-1.32862932e+00 -9.25673008e-02  1.75558786e-01  6.50385004e-01
  6.50385004e-01  1.14860786e+00  2.38703849e+00  2.38703849e+00
  4.12458040e+00  5.66258334e+00  5.66258334e+00  5.66258334e+00
  6.73420000e+00  6.73420000e+00  1.25840323e+01  1.55590748e+01
  1.55590748e+01  1.55590748e+01  1.83540814e+01  1.83540814e+01
  3.71228221e+01  7.09933176e+01  7.09933176e+01  1.06405615e+02
  2.90685498e+02  2.90685498e+02  2.97613452e+02  8.36346670e+02]
alpha-B2u nocc = 1  HOMO = -1.32862931768983  LUMO = -0.0925673008097133
   mo_energy = [-1.32862932e+00 -9.25673008e-02  1.75558786e-01  6.50385004e-01
  6.50385004e-01  1.14860786e+00  2.38703849e+00  2.38703849e+00
  4.12458040e+00  5.66258334e+00  5.66258334e+00  5.66258334e+00
  6.73420000e+00  6.73420000e+00  1.25840323e+01  1.55590748e+01
  1.55590748e+01  1.55590748e+01  1.83540814e+01  1.83540814e+01
  3.71228221e+01  7.09933176e+01  7.09933176e+01  1.06405615e+02
  2.90685498e+02  2.90685498e+02  2.97613452e+02  8.36346670e+02]
alpha-B3u nocc = 1  HOMO = -1.32862931768979  LUMO = -0.0925673008097151
   mo_energy = [-1.32862932e+00 -9.25673008e-02  1.75558786e-01  6.50385004e-01
  6.50385004e-01  1.14860786e+00  2.38703849e+00  2.38703849e+00
  4.12458040e+00  5.66258334e+00  5.66258334e+00  5.66258334e+00
  6.73420000e+00  6.73420000e+00  1.25840323e+01  1.55590748e+01
  1.55590748e+01  1.55590748e+01  1.83540814e+01  1.83540814e+01
  3.71228221e+01  7.09933176e+01  7.09933176e+01  1.06405615e+02
  2.90685498e+02  2.90685498e+02  2.97613452e+02  8.36346670e+02]
beta-Ag nocc = 2  HOMO = -1.53320064022423  LUMO = -0.123432141420255
   mo_energy = [-2.12786334e+01 -1.53320064e+00 -1.23432141e-01  1.30153665e-01
  1.30153665e-01  4.08491218e-01  8.93139283e-01  8.93139283e-01
  2.20069551e+00  2.20069551e+00  2.20069551e+00  2.36404468e+00
  2.80946545e+00  2.80946545e+00  6.53074588e+00  6.53074588e+00
  6.53074588e+00  7.71455457e+00  7.71455457e+00  8.64219053e+00
  1.84442067e+01  1.84442067e+01  1.84442067e+01  2.09342428e+01
  2.09342428e+01  2.74702731e+01  6.02357905e+01  6.02357905e+01
  8.01557559e+01  1.80379693e+02  1.80379693e+02  2.17920553e+02
  2.44975452e+02  2.44975452e+02  2.44975452e+02  5.55714467e+02
  5.55714467e+02  5.81472551e+02  2.06697531e+03]
beta-B1g nocc = 0
   mo_energy = [1.30153665e-01 8.93139283e-01 2.20069551e+00 2.20069551e+00
 2.80946545e+00 6.53074588e+00 6.53074588e+00 7.71455457e+00
 1.84442067e+01 1.84442067e+01 2.09342428e+01 6.02357905e+01
 1.80379693e+02 2.44975452e+02 2.44975452e+02 5.55714467e+02]
beta-B2g nocc = 0
   mo_energy = [1.30153665e-01 8.93139283e-01 2.20069551e+00 2.20069551e+00
 2.80946545e+00 6.53074588e+00 6.53074588e+00 7.71455457e+00
 1.84442067e+01 1.84442067e+01 2.09342428e+01 6.02357905e+01
 1.80379693e+02 2.44975452e+02 2.44975452e+02 5.55714467e+02]
beta-B3g nocc = 0
   mo_energy = [1.30153665e-01 8.93139283e-01 2.20069551e+00 2.20069551e+00
 2.80946545e+00 6.53074588e+00 6.53074588e+00 7.71455457e+00
 1.84442067e+01 1.84442067e+01 2.09342428e+01 6.02357905e+01
 1.80379693e+02 2.44975452e+02 2.44975452e+02 5.55714467e+02]
beta-Au nocc = 0
   mo_energy = [  0.65587976   2.43135831   5.68253548   5.68253548   6.8400457
  15.6129539   15.6129539   18.47034462  71.05335139 290.69948271]
beta-B1u nocc = 0
   mo_energy = [-3.81202260e-01 -7.24950685e-02  2.40374558e-01  6.55879765e-01
  6.55879765e-01  1.28064948e+00  2.43135831e+00  2.43135831e+00
  4.27733482e+00  5.68253548e+00  5.68253548e+00  5.68253548e+00
  6.84004570e+00  6.84004570e+00  1.27058696e+01  1.56129539e+01
  1.56129539e+01  1.56129539e+01  1.84703446e+01  1.84703446e+01
  3.71928215e+01  7.10533514e+01  7.10533514e+01  1.06435656e+02
  2.90699483e+02  2.90699483e+02  2.97623896e+02  8.36349659e+02]
beta-B2u nocc = 0
   mo_energy = [-3.81202260e-01 -7.24950685e-02  2.40374558e-01  6.55879765e-01
  6.55879765e-01  1.28064948e+00  2.43135831e+00  2.43135831e+00
  4.27733482e+00  5.68253548e+00  5.68253548e+00  5.68253548e+00
  6.84004570e+00  6.84004570e+00  1.27058696e+01  1.56129539e+01
  1.56129539e+01  1.56129539e+01  1.84703446e+01  1.84703446e+01
  3.71928215e+01  7.10533514e+01  7.10533514e+01  1.06435656e+02
  2.90699483e+02  2.90699483e+02  2.97623896e+02  8.36349659e+02]
beta-B3u nocc = 0
   mo_energy = [-3.81202260e-01 -7.24950685e-02  2.40374558e-01  6.55879765e-01
  6.55879765e-01  1.28064948e+00  2.43135831e+00  2.43135831e+00
  4.27733482e+00  5.68253548e+00  5.68253548e+00  5.68253548e+00
  6.84004570e+00  6.84004570e+00  1.27058696e+01  1.56129539e+01
  1.56129539e+01  1.56129539e+01  1.84703446e+01  1.84703446e+01
  3.71928215e+01  7.10533514e+01  7.10533514e+01  1.06435656e+02
  2.90699483e+02  2.90699483e+02  2.97623896e+02  8.36349659e+02]
multiplicity <S^2> = 3.7548513  2S+1 = 4.0024249
E1 = -98.4635797027967  Ecoul = 24.086627292816225
cycle= 4 E= -74.3769524099805  delta_E= -0.000818  |g|= 0.00671  |ddm|= 0.0367
    CPU time for cycle= 4      1.22 sec, wall time      0.39 sec
diis-norm(errvec)=0.00949356
diis-c [-2.46992048e-05  2.10073792e-03  4.23841477e-02 -3.30134530e-01
  1.28564964e+00]
alpha HOMO (B2u) = -1.33065378481984  LUMO (Ag) = -0.139190329541033
alpha irrep_nelec = [2, 0, 0, 0, 0, 1, 1, 1]
beta  irrep_nelec = [2, 0, 0, 0, 0, 0, 0, 0]
alpha-Ag nocc = 2  HOMO = -2.07136710777703  LUMO = -0.139190329541033
   mo_energy = [-2.14108093e+01 -2.07136711e+00 -1.39190330e-01  1.19336095e-01
  1.19336095e-01  3.57333351e-01  8.16323186e-01  8.16323186e-01
  2.18950997e+00  2.18950997e+00  2.18950997e+00  2.25133667e+00
  2.64363642e+00  2.64363642e+00  6.47990164e+00  6.47990164e+00
  6.47990164e+00  7.53872337e+00  7.53872337e+00  8.51905625e+00
  1.83537571e+01  1.83537571e+01  1.83537571e+01  2.08119817e+01
  2.08119817e+01  2.73892914e+01  6.01752926e+01  6.01752926e+01
  8.01171599e+01  1.80357806e+02  1.80357806e+02  2.17904831e+02
  2.44954372e+02  2.44954372e+02  2.44954372e+02  5.55707826e+02
  5.55707826e+02  5.81466516e+02  2.06697248e+03]
alpha-B1g nocc = 0
   mo_energy = [1.19336095e-01 8.16323186e-01 2.18950997e+00 2.18950997e+00
 2.64363642e+00 6.47990164e+00 6.47990164e+00 7.53872337e+00
 1.83537571e+01 1.83537571e+01 2.08119817e+01 6.01752926e+01
 1.80357806e+02 2.44954372e+02 2.44954372e+02 5.55707826e+02]
alpha-B2g nocc = 0
   mo_energy = [1.19336095e-01 8.16323186e-01 2.18950997e+00 2.18950997e+00
 2.64363642e+00 6.47990164e+00 6.47990164e+00 7.53872337e+00
 1.83537571e+01 1.83537571e+01 2.08119817e+01 6.01752926e+01
 1.80357806e+02 2.44954372e+02 2.44954372e+02 5.55707826e+02]
alpha-B3g nocc = 0
   mo_energy = [1.19336095e-01 8.16323186e-01 2.18950997e+00 2.18950997e+00
 2.64363642e+00 6.47990164e+00 6.47990164e+00 7.53872337e+00
 1.83537571e+01 1.83537571e+01 2.08119817e+01 6.01752926e+01
 1.80357806e+02 2.44954372e+02 2.44954372e+02 5.55707826e+02]
alpha-Au nocc = 0
   mo_energy = [  0.65030798   2.3866173    5.66199776   5.66199776   6.73254428
  15.55727512  15.55727512  18.35165191  70.99166984 290.68435218]
alpha-B1u nocc = 1  HOMO = -1.33065378481985  LUMO = -0.092787345150599
   mo_energy = [-1.33065378e+00 -9.27873452e-02  1.75052314e-01  6.50307978e-01
  6.50307978e-01  1.14757381e+00  2.38661730e+00  2.38661730e+00
  4.12282507e+00  5.66199776e+00  5.66199776e+00  5.66199776e+00
  6.73254428e+00  6.73254428e+00  1.25819381e+01  1.55572751e+01
  1.55572751e+01  1.55572751e+01  1.83516519e+01  1.83516519e+01
  3.71209114e+01  7.09916698e+01  7.09916698e+01  1.06404035e+02
  2.90684352e+02  2.90684352e+02  2.97612073e+02  8.36345363e+02]
alpha-B2u nocc = 1  HOMO = -1.33065378481984  LUMO = -0.0927873451505469
   mo_energy = [-1.33065378e+00 -9.27873452e-02  1.75052314e-01  6.50307978e-01
  6.50307978e-01  1.14757381e+00  2.38661730e+00  2.38661730e+00
  4.12282507e+00  5.66199776e+00  5.66199776e+00  5.66199776e+00
  6.73254428e+00  6.73254428e+00  1.25819381e+01  1.55572751e+01
  1.55572751e+01  1.55572751e+01  1.83516519e+01  1.83516519e+01
  3.71209114e+01  7.09916698e+01  7.09916698e+01  1.06404035e+02
  2.90684352e+02  2.90684352e+02  2.97612073e+02  8.36345363e+02]
alpha-B3u nocc = 1  HOMO = -1.33065378481985  LUMO = -0.0927873451506082
   mo_energy = [-1.33065378e+00 -9.27873452e-02  1.75052314e-01  6.50307978e-01
  6.50307978e-01  1.14757381e+00  2.38661730e+00  2.38661730e+00
  4.12282507e+00  5.66199776e+00  5.66199776e+00  5.66199776e+00
  6.73254428e+00  6.73254428e+00  1.25819381e+01  1.55572751e+01
  1.55572751e+01  1.55572751e+01  1.83516519e+01  1.83516519e+01
  3.71209114e+01  7.09916698e+01  7.09916698e+01  1.06404035e+02
  2.90684352e+02  2.90684352e+02  2.97612073e+02  8.36345363e+02]
beta-Ag nocc = 2  HOMO = -1.53091447158907  LUMO = -0.123295211544393
   mo_energy = [-2.12784410e+01 -1.53091447e+00 -1.23295212e-01  1.29944836e-01
  1.29944836e-01  4.08820721e-01  8.92252477e-01  8.92252477e-01
  2.20021074e+00  2.20021074e+00  2.20021074e+00  2.36422590e+00
  2.80851122e+00  2.80851122e+00  6.52950554e+00  6.52950554e+00
  6.52950554e+00  7.71345067e+00  7.71345067e+00  8.64169717e+00
  1.84424812e+01  1.84424812e+01  1.84424812e+01  2.09328136e+01
  2.09328136e+01  2.74694061e+01  6.02345568e+01  6.02345568e+01
  8.01549519e+01  1.80378794e+02  1.80378794e+02  2.17919825e+02
  2.44974488e+02  2.44974488e+02  2.44974488e+02  5.55713642e+02
  5.55713642e+02  5.81471773e+02  2.06697438e+03]
beta-B1g nocc = 0
   mo_energy = [1.29944836e-01 8.92252477e-01 2.20021074e+00 2.20021074e+00
 2.80851122e+00 6.52950554e+00 6.52950554e+00 7.71345067e+00
 1.84424812e+01 1.84424812e+01 2.09328136e+01 6.02345568e+01
 1.80378794e+02 2.44974488e+02 2.44974488e+02 5.55713642e+02]
beta-B2g nocc = 0
   mo_energy = [1.29944836e-01 8.92252477e-01 2.20021074e+00 2.20021074e+00
 2.80851122e+00 6.52950554e+00 6.52950554e+00 7.71345067e+00
 1.84424812e+01 1.84424812e+01 2.09328136e+01 6.02345568e+01
 1.80378794e+02 2.44974488e+02 2.44974488e+02 5.55713642e+02]
beta-B3g nocc = 0
   mo_energy = [1.29944836e-01 8.92252477e-01 2.20021074e+00 2.20021074e+00
 2.80851122e+00 6.52950554e+00 6.52950554e+00 7.71345067e+00
 1.84424812e+01 1.84424812e+01 2.09328136e+01 6.02345568e+01
 1.80378794e+02 2.44974488e+02 2.44974488e+02 5.55713642e+02]
beta-Au nocc = 0
   mo_energy = [  0.6556608    2.4304444    5.68165507   5.68165507   6.83870297
  15.61129985  15.61129985  18.46880126  71.0520845  290.69859904]
beta-B1u nocc = 0
   mo_energy = [-3.82293721e-01 -7.24982368e-02  2.40337781e-01  6.55660801e-01
  6.55660801e-01  1.28014087e+00  2.43044440e+00  2.43044440e+00
  4.27627969e+00  5.68165507e+00  5.68165507e+00  5.68165507e+00
  6.83870297e+00  6.83870297e+00  1.27046914e+01  1.56112999e+01
  1.56112999e+01  1.56112999e+01  1.84688013e+01  1.84688013e+01
  3.71917645e+01  7.10520845e+01  7.10520845e+01  1.06434834e+02
  2.90698599e+02  2.90698599e+02  2.97623149e+02  8.36348831e+02]
beta-B2u nocc = 0
   mo_energy = [-3.82293721e-01 -7.24982368e-02  2.40337781e-01  6.55660801e-01
  6.55660801e-01  1.28014087e+00  2.43044440e+00  2.43044440e+00
  4.27627969e+00  5.68165507e+00  5.68165507e+00  5.68165507e+00
  6.83870297e+00  6.83870297e+00  1.27046914e+01  1.56112999e+01
  1.56112999e+01  1.56112999e+01  1.84688013e+01  1.84688013e+01
  3.71917645e+01  7.10520845e+01  7.10520845e+01  1.06434834e+02
  2.90698599e+02  2.90698599e+02  2.97623149e+02  8.36348831e+02]
beta-B3u nocc = 0
   mo_energy = [-3.82293721e-01 -7.24982368e-02  2.40337781e-01  6.55660801e-01
  6.55660801e-01  1.28014087e+00  2.43044440e+00  2.43044440e+00
  4.27627969e+00  5.68165507e+00  5.68165507e+00  5.68165507e+00
  6.83870297e+00  6.83870297e+00  1.27046914e+01  1.56112999e+01
  1.56112999e+01  1.56112999e+01  1.84688013e+01  1.84688013e+01
  3.71917645e+01  7.10520845e+01  7.10520845e+01  1.06434834e+02
  2.90698599e+02  2.90698599e+02  2.97623149e+02  8.36348831e+02]
multiplicity <S^2> = 3.7555009  2S+1 = 4.0027495
E1 = -98.4705023136533  Ecoul = 24.093520782169634
cycle= 5 E= -74.3769815314837  delta_E= -2.91e-05  |g|= 0.000709  |ddm|= 0.00652
    CPU time for cycle= 5      1.23 sec, wall time      0.44 sec
diis-norm(errvec)=0.00100198
diis-c [-1.17324696e-07  2.03340782e-04 -4.43148143e-03  4.03320031e-02
 -2.38843212e-01  1.20273935e+00]
alpha HOMO (B3u) = -1.33079368884839  LUMO (Ag) = -0.139227801550977
alpha irrep_nelec = [2, 0, 0, 0, 0, 1, 1, 1]
beta  irrep_nelec = [2, 0, 0, 0, 0, 0, 0, 0]
alpha-Ag nocc = 2  HOMO = -2.07157360085965  LUMO = -0.139227801550977
   mo_energy = [-2.14108535e+01 -2.07157360e+00 -1.39227802e-01  1.19306068e-01
  1.19306068e-01  3.57270427e-01  8.16301100e-01  8.16301100e-01
  2.18946011e+00  2.18946011e+00  2.18946011e+00  2.25121972e+00
  2.64357902e+00  2.64357902e+00  6.47980050e+00  6.47980050e+00
  6.47980050e+00  7.53860353e+00  7.53860353e+00  8.51893852e+00
  1.83536767e+01  1.83536767e+01  1.83536767e+01  2.08119866e+01
  2.08119866e+01  2.73892743e+01  6.01754113e+01  6.01754113e+01
  8.01172003e+01  1.80357895e+02  1.80357895e+02  2.17904836e+02
  2.44954525e+02  2.44954525e+02  2.44954525e+02  5.55707779e+02
  5.55707779e+02  5.81466422e+02  2.06697227e+03]
alpha-B1g nocc = 0
   mo_energy = [1.19306068e-01 8.16301100e-01 2.18946011e+00 2.18946011e+00
 2.64357902e+00 6.47980050e+00 6.47980050e+00 7.53860353e+00
 1.83536767e+01 1.83536767e+01 2.08119866e+01 6.01754113e+01
 1.80357895e+02 2.44954525e+02 2.44954525e+02 5.55707779e+02]
alpha-B2g nocc = 0
   mo_energy = [1.19306068e-01 8.16301100e-01 2.18946011e+00 2.18946011e+00
 2.64357902e+00 6.47980050e+00 6.47980050e+00 7.53860353e+00
 1.83536767e+01 1.83536767e+01 2.08119866e+01 6.01754113e+01
 1.80357895e+02 2.44954525e+02 2.44954525e+02 5.55707779e+02]
alpha-B3g nocc = 0
   mo_energy = [1.19306068e-01 8.16301100e-01 2.18946011e+00 2.18946011e+00
 2.64357902e+00 6.47980050e+00 6.47980050e+00 7.53860353e+00
 1.83536767e+01 1.83536767e+01 2.08119866e+01 6.01754113e+01
 1.80357895e+02 2.44954525e+02 2.44954525e+02 5.55707779e+02]
alpha-Au nocc = 0
   mo_energy = [  0.65028197   2.38656161   5.66190558   5.66190558   6.73244303
  15.55715582  15.55715582  18.35160238  70.99181628 290.6844366 ]
alpha-B1u nocc = 1  HOMO = -1.33079368884844  LUMO = -0.0927899010437508
   mo_energy = [-1.33079369e+00 -9.27899010e-02  1.75030119e-01  6.50281973e-01
  6.50281973e-01  1.14750612e+00  2.38656161e+00  2.38656161e+00
  4.12274959e+00  5.66190558e+00  5.66190558e+00  5.66190558e+00
  6.73244303e+00  6.73244303e+00  1.25819072e+01  1.55571558e+01
  1.55571558e+01  1.55571558e+01  1.83516024e+01  1.83516024e+01
  3.71209619e+01  7.09918163e+01  7.09918163e+01  1.06404099e+02
  2.90684437e+02  2.90684437e+02  2.97612065e+02  8.36345237e+02]
alpha-B2u nocc = 1  HOMO = -1.3307936888484  LUMO = -0.0927899010437394
   mo_energy = [-1.33079369e+00 -9.27899010e-02  1.75030119e-01  6.50281973e-01
  6.50281973e-01  1.14750612e+00  2.38656161e+00  2.38656161e+00
  4.12274959e+00  5.66190558e+00  5.66190558e+00  5.66190558e+00
  6.73244303e+00  6.73244303e+00  1.25819072e+01  1.55571558e+01
  1.55571558e+01  1.55571558e+01  1.83516024e+01  1.83516024e+01
  3.71209619e+01  7.09918163e+01  7.09918163e+01  1.06404099e+02
  2.90684437e+02  2.90684437e+02  2.97612065e+02  8.36345237e+02]
alpha-B3u nocc = 1  HOMO = -1.33079368884839  LUMO = -0.0927899010437736
[...]
 2.64358376e+00 6.47980391e+00 6.47980391e+00 7.53860924e+00
 1.83536843e+01 1.83536843e+01 2.08119950e+01 6.01754199e+01
 1.80357907e+02 2.44954535e+02 2.44954535e+02 5.55707800e+02]
alpha-B3g nocc = 0
   mo_energy = [1.19304815e-01 8.16302519e-01 2.18945960e+00 2.18945960e+00
 2.64358376e+00 6.47980391e+00 6.47980391e+00 7.53860924e+00
 1.83536843e+01 1.83536843e+01 2.08119950e+01 6.01754199e+01
 1.80357907e+02 2.44954535e+02 2.44954535e+02 5.55707800e+02]
alpha-Au nocc = 0
   mo_energy = [  0.65028119   2.38656318   5.66190638   5.66190638   6.73244824
  15.55716185  15.55716185  18.35161003  70.99182403 290.68444965]
alpha-B1u nocc = 1  HOMO = -1.33078864193589  LUMO = -0.092788935455152
   mo_energy = [-1.33078864e+00 -9.27889355e-02  1.75031947e-01  6.50281191e-01
  6.50281191e-01  1.14750988e+00  2.38656318e+00  2.38656318e+00
  4.12275660e+00  5.66190638e+00  5.66190638e+00  5.66190638e+00
  6.73244824e+00  6.73244824e+00  1.25819151e+01  1.55571619e+01
  1.55571619e+01  1.55571619e+01  1.83516100e+01  1.83516100e+01
  3.71209708e+01  7.09918240e+01  7.09918240e+01  1.06404110e+02
  2.90684450e+02  2.90684450e+02  2.97612082e+02  8.36345264e+02]
alpha-B2u nocc = 1  HOMO = -1.33078864193589  LUMO = -0.092788935455135
   mo_energy = [-1.33078864e+00 -9.27889355e-02  1.75031947e-01  6.50281191e-01
  6.50281191e-01  1.14750988e+00  2.38656318e+00  2.38656318e+00
  4.12275660e+00  5.66190638e+00  5.66190638e+00  5.66190638e+00
  6.73244824e+00  6.73244824e+00  1.25819151e+01  1.55571619e+01
  1.55571619e+01  1.55571619e+01  1.83516100e+01  1.83516100e+01
  3.71209708e+01  7.09918240e+01  7.09918240e+01  1.06404110e+02
  2.90684450e+02  2.90684450e+02  2.97612082e+02  8.36345264e+02]
alpha-B3u nocc = 1  HOMO = -1.33078864193587  LUMO = -0.0927889354551312
   mo_energy = [-1.33078864e+00 -9.27889355e-02  1.75031947e-01  6.50281191e-01
  6.50281191e-01  1.14750988e+00  2.38656318e+00  2.38656318e+00
  4.12275660e+00  5.66190638e+00  5.66190638e+00  5.66190638e+00
  6.73244824e+00  6.73244824e+00  1.25819151e+01  1.55571619e+01
  1.55571619e+01  1.55571619e+01  1.83516100e+01  1.83516100e+01
  3.71209708e+01  7.09918240e+01  7.09918240e+01  1.06404110e+02
  2.90684450e+02  2.90684450e+02  2.97612082e+02  8.36345264e+02]
beta-Ag nocc = 2  HOMO = -1.53071614225211  LUMO = -0.123283338108782
   mo_energy = [-2.12781129e+01 -1.53071614e+00 -1.23283338e-01  1.29923598e-01
  1.29923598e-01  4.08850447e-01  8.92160064e-01  8.92160064e-01
  2.20014796e+00  2.20014796e+00  2.20014796e+00  2.36427330e+00
  2.80843310e+00  2.80843310e+00  6.52936580e+00  6.52936580e+00
  6.52936580e+00  7.71346977e+00  7.71346977e+00  8.64178838e+00
  1.84424643e+01  1.84424643e+01  1.84424643e+01  2.09329179e+01
  2.09329179e+01  2.74695728e+01  6.02347203e+01  6.02347203e+01
  8.01551392e+01  1.80378939e+02  1.80378939e+02  2.17919952e+02
  2.44974662e+02  2.44974662e+02  2.44974662e+02  5.55713673e+02
  5.55713673e+02  5.81471785e+02  2.06697425e+03]
beta-B1g nocc = 0
   mo_energy = [1.29923598e-01 8.92160064e-01 2.20014796e+00 2.20014796e+00
 2.80843310e+00 6.52936580e+00 6.52936580e+00 7.71346977e+00
 1.84424643e+01 1.84424643e+01 2.09329179e+01 6.02347203e+01
 1.80378939e+02 2.44974662e+02 2.44974662e+02 5.55713673e+02]
beta-B2g nocc = 0
   mo_energy = [1.29923598e-01 8.92160064e-01 2.20014796e+00 2.20014796e+00
 2.80843310e+00 6.52936580e+00 6.52936580e+00 7.71346977e+00
 1.84424643e+01 1.84424643e+01 2.09329179e+01 6.02347203e+01
 1.80378939e+02 2.44974662e+02 2.44974662e+02 5.55713673e+02]
beta-B3g nocc = 0
   mo_energy = [1.29923598e-01 8.92160064e-01 2.20014796e+00 2.20014796e+00
 2.80843310e+00 6.52936580e+00 6.52936580e+00 7.71346977e+00
 1.84424643e+01 1.84424643e+01 2.09329179e+01 6.02347203e+01
 1.80378939e+02 2.44974662e+02 2.44974662e+02 5.55713673e+02]
beta-Au nocc = 0
   mo_energy = [  0.65563675   2.43033423   5.68153437   5.68153437   6.83860538
  15.61118477  15.61118477  18.46886168  71.05227358 290.69872448]
beta-B1u nocc = 0
   mo_energy = [-3.82344689e-01 -7.24927949e-02  2.40351252e-01  6.55636749e-01
  6.55636749e-01  1.28013483e+00  2.43033423e+00  2.43033423e+00
  4.27626600e+00  5.68153437e+00  5.68153437e+00  5.68153437e+00
  6.83860538e+00  6.83860538e+00  1.27047461e+01  1.56111848e+01
  1.56111848e+01  1.56111848e+01  1.84688617e+01  1.84688617e+01
  3.71919142e+01  7.10522736e+01  7.10522736e+01  1.06435002e+02
  2.90698724e+02  2.90698724e+02  2.97623244e+02  8.36348801e+02]
beta-B2u nocc = 0
   mo_energy = [-3.82344689e-01 -7.24927949e-02  2.40351252e-01  6.55636749e-01
  6.55636749e-01  1.28013483e+00  2.43033423e+00  2.43033423e+00
  4.27626600e+00  5.68153437e+00  5.68153437e+00  5.68153437e+00
  6.83860538e+00  6.83860538e+00  1.27047461e+01  1.56111848e+01
  1.56111848e+01  1.56111848e+01  1.84688617e+01  1.84688617e+01
  3.71919142e+01  7.10522736e+01  7.10522736e+01  1.06435002e+02
  2.90698724e+02  2.90698724e+02  2.97623244e+02  8.36348801e+02]
beta-B3u nocc = 0
   mo_energy = [-3.82344689e-01 -7.24927949e-02  2.40351252e-01  6.55636749e-01
  6.55636749e-01  1.28013483e+00  2.43033423e+00  2.43033423e+00
  4.27626600e+00  5.68153437e+00  5.68153437e+00  5.68153437e+00
  6.83860538e+00  6.83860538e+00  1.27047461e+01  1.56111848e+01
  1.56111848e+01  1.56111848e+01  1.84688617e+01  1.84688617e+01
  3.71919142e+01  7.10522736e+01  7.10522736e+01  1.06435002e+02
  2.90698724e+02  2.90698724e+02  2.97623244e+02  8.36348801e+02]
multiplicity <S^2> = 3.7555583  2S+1 = 4.0027782
E1 = -98.47034784217001  Ecoul = 24.093366075353803
cycle= 72 E= -74.3769817668162  delta_E= -2.84e-14  |g|= 2.94e-12  |ddm|= 8.13e-12
    CPU time for cycle= 72      1.22 sec, wall time      0.41 sec
diis-norm(errvec)=4.33887e-12
Linear dependence found in DIIS error vectors.
diis-c [-2.89052492e-16  1.25000000e-01  1.25000000e-01  1.25000000e-01
  1.25000000e-01  1.25000000e-01  1.25000000e-01  1.25000000e-01
  1.25000000e-01]
alpha HOMO (B2u) = -1.33078864193588  LUMO (Ag) = -0.139228840095898
alpha irrep_nelec = [2, 0, 0, 0, 0, 1, 1, 1]
beta  irrep_nelec = [2, 0, 0, 0, 0, 0, 0, 0]
alpha-Ag nocc = 2  HOMO = -2.07157891252305  LUMO = -0.139228840095898
   mo_energy = [-2.14108418e+01 -2.07157891e+00 -1.39228840e-01  1.19304815e-01
  1.19304815e-01  3.57268818e-01  8.16302519e-01  8.16302519e-01
  2.18945960e+00  2.18945960e+00  2.18945960e+00  2.25121922e+00
  2.64358376e+00  2.64358376e+00  6.47980391e+00  6.47980391e+00
  6.47980391e+00  7.53860924e+00  7.53860924e+00  8.51894192e+00
  1.83536843e+01  1.83536843e+01  1.83536843e+01  2.08119950e+01
  2.08119950e+01  2.73892813e+01  6.01754199e+01  6.01754199e+01
  8.01172101e+01  1.80357907e+02  1.80357907e+02  2.17904851e+02
  2.44954535e+02  2.44954535e+02  2.44954535e+02  5.55707800e+02
  5.55707800e+02  5.81466445e+02  2.06697230e+03]
alpha-B1g nocc = 0
   mo_energy = [1.19304815e-01 8.16302519e-01 2.18945960e+00 2.18945960e+00
 2.64358376e+00 6.47980391e+00 6.47980391e+00 7.53860924e+00
 1.83536843e+01 1.83536843e+01 2.08119950e+01 6.01754199e+01
 1.80357907e+02 2.44954535e+02 2.44954535e+02 5.55707800e+02]
alpha-B2g nocc = 0
   mo_energy = [1.19304815e-01 8.16302519e-01 2.18945960e+00 2.18945960e+00
 2.64358376e+00 6.47980391e+00 6.47980391e+00 7.53860924e+00
 1.83536843e+01 1.83536843e+01 2.08119950e+01 6.01754199e+01
 1.80357907e+02 2.44954535e+02 2.44954535e+02 5.55707800e+02]
alpha-B3g nocc = 0
   mo_energy = [1.19304815e-01 8.16302519e-01 2.18945960e+00 2.18945960e+00
 2.64358376e+00 6.47980391e+00 6.47980391e+00 7.53860924e+00
 1.83536843e+01 1.83536843e+01 2.08119950e+01 6.01754199e+01
 1.80357907e+02 2.44954535e+02 2.44954535e+02 5.55707800e+02]
alpha-Au nocc = 0
   mo_energy = [  0.65028119   2.38656318   5.66190638   5.66190638   6.73244824
  15.55716185  15.55716185  18.35161003  70.99182403 290.68444965]
alpha-B1u nocc = 1  HOMO = -1.33078864193588  LUMO = -0.0927889354551697
   mo_energy = [-1.33078864e+00 -9.27889355e-02  1.75031947e-01  6.50281191e-01
  6.50281191e-01  1.14750988e+00  2.38656318e+00  2.38656318e+00
  4.12275660e+00  5.66190638e+00  5.66190638e+00  5.66190638e+00
  6.73244824e+00  6.73244824e+00  1.25819151e+01  1.55571619e+01
  1.55571619e+01  1.55571619e+01  1.83516100e+01  1.83516100e+01
  3.71209708e+01  7.09918240e+01  7.09918240e+01  1.06404110e+02
  2.90684450e+02  2.90684450e+02  2.97612082e+02  8.36345264e+02]
alpha-B2u nocc = 1  HOMO = -1.33078864193588  LUMO = -0.0927889354551502
   mo_energy = [-1.33078864e+00 -9.27889355e-02  1.75031947e-01  6.50281191e-01
  6.50281191e-01  1.14750988e+00  2.38656318e+00  2.38656318e+00
  4.12275660e+00  5.66190638e+00  5.66190638e+00  5.66190638e+00
  6.73244824e+00  6.73244824e+00  1.25819151e+01  1.55571619e+01
  1.55571619e+01  1.55571619e+01  1.83516100e+01  1.83516100e+01
  3.71209708e+01  7.09918240e+01  7.09918240e+01  1.06404110e+02
  2.90684450e+02  2.90684450e+02  2.97612082e+02  8.36345264e+02]
alpha-B3u nocc = 1  HOMO = -1.33078864193588  LUMO = -0.0927889354551482
   mo_energy = [-1.33078864e+00 -9.27889355e-02  1.75031947e-01  6.50281191e-01
  6.50281191e-01  1.14750988e+00  2.38656318e+00  2.38656318e+00
  4.12275660e+00  5.66190638e+00  5.66190638e+00  5.66190638e+00
  6.73244824e+00  6.73244824e+00  1.25819151e+01  1.55571619e+01
  1.55571619e+01  1.55571619e+01  1.83516100e+01  1.83516100e+01
  3.71209708e+01  7.09918240e+01  7.09918240e+01  1.06404110e+02
  2.90684450e+02  2.90684450e+02  2.97612082e+02  8.36345264e+02]
beta-Ag nocc = 2  HOMO = -1.5307161422522  LUMO = -0.123283338108911
   mo_energy = [-2.12781129e+01 -1.53071614e+00 -1.23283338e-01  1.29923598e-01
  1.29923598e-01  4.08850447e-01  8.92160064e-01  8.92160064e-01
  2.20014796e+00  2.20014796e+00  2.20014796e+00  2.36427330e+00
  2.80843310e+00  2.80843310e+00  6.52936580e+00  6.52936580e+00
  6.52936580e+00  7.71346977e+00  7.71346977e+00  8.64178838e+00
  1.84424643e+01  1.84424643e+01  1.84424643e+01  2.09329179e+01
  2.09329179e+01  2.74695728e+01  6.02347203e+01  6.02347203e+01
  8.01551392e+01  1.80378939e+02  1.80378939e+02  2.17919952e+02
  2.44974662e+02  2.44974662e+02  2.44974662e+02  5.55713673e+02
  5.55713673e+02  5.81471785e+02  2.06697425e+03]
beta-B1g nocc = 0
   mo_energy = [1.29923598e-01 8.92160064e-01 2.20014796e+00 2.20014796e+00
 2.80843310e+00 6.52936580e+00 6.52936580e+00 7.71346977e+00
 1.84424643e+01 1.84424643e+01 2.09329179e+01 6.02347203e+01
 1.80378939e+02 2.44974662e+02 2.44974662e+02 5.55713673e+02]
beta-B2g nocc = 0
   mo_energy = [1.29923598e-01 8.92160064e-01 2.20014796e+00 2.20014796e+00
 2.80843310e+00 6.52936580e+00 6.52936580e+00 7.71346977e+00
 1.84424643e+01 1.84424643e+01 2.09329179e+01 6.02347203e+01
 1.80378939e+02 2.44974662e+02 2.44974662e+02 5.55713673e+02]
beta-B3g nocc = 0
   mo_energy = [1.29923598e-01 8.92160064e-01 2.20014796e+00 2.20014796e+00
 2.80843310e+00 6.52936580e+00 6.52936580e+00 7.71346977e+00
 1.84424643e+01 1.84424643e+01 2.09329179e+01 6.02347203e+01
 1.80378939e+02 2.44974662e+02 2.44974662e+02 5.55713673e+02]
beta-Au nocc = 0
   mo_energy = [  0.65563675   2.43033423   5.68153437   5.68153437   6.83860538
  15.61118477  15.61118477  18.46886168  71.05227358 290.69872448]
beta-B1u nocc = 0
   mo_energy = [-3.82344689e-01 -7.24927949e-02  2.40351252e-01  6.55636749e-01
  6.55636749e-01  1.28013483e+00  2.43033423e+00  2.43033423e+00
  4.27626600e+00  5.68153437e+00  5.68153437e+00  5.68153437e+00
  6.83860538e+00  6.83860538e+00  1.27047461e+01  1.56111848e+01
  1.56111848e+01  1.56111848e+01  1.84688617e+01  1.84688617e+01
  3.71919142e+01  7.10522736e+01  7.10522736e+01  1.06435002e+02
  2.90698724e+02  2.90698724e+02  2.97623244e+02  8.36348801e+02]
beta-B2u nocc = 0
   mo_energy = [-3.82344689e-01 -7.24927949e-02  2.40351252e-01  6.55636749e-01
  6.55636749e-01  1.28013483e+00  2.43033423e+00  2.43033423e+00
  4.27626600e+00  5.68153437e+00  5.68153437e+00  5.68153437e+00
  6.83860538e+00  6.83860538e+00  1.27047461e+01  1.56111848e+01
  1.56111848e+01  1.56111848e+01  1.84688617e+01  1.84688617e+01
  3.71919142e+01  7.10522736e+01  7.10522736e+01  1.06435002e+02
  2.90698724e+02  2.90698724e+02  2.97623244e+02  8.36348801e+02]
beta-B3u nocc = 0
   mo_energy = [-3.82344689e-01 -7.24927949e-02  2.40351252e-01  6.55636749e-01
  6.55636749e-01  1.28013483e+00  2.43033423e+00  2.43033423e+00
  4.27626600e+00  5.68153437e+00  5.68153437e+00  5.68153437e+00
  6.83860538e+00  6.83860538e+00  1.27047461e+01  1.56111848e+01
  1.56111848e+01  1.56111848e+01  1.84688617e+01  1.84688617e+01
  3.71919142e+01  7.10522736e+01  7.10522736e+01  1.06435002e+02
  2.90698724e+02  2.90698724e+02  2.97623244e+02  8.36348801e+02]
multiplicity <S^2> = 3.7555583  2S+1 = 4.0027782
E1 = -98.4703478421691  Ecoul = 24.093366075352996
cycle= 73 E= -74.3769817668161  delta_E= 1.14e-13  |g|= 4.21e-12  |ddm|= 9.32e-13
    CPU time for cycle= 73      1.27 sec, wall time      0.40 sec
alpha HOMO (B2u) = -1.33078864193598  LUMO (Ag) = -0.139228840096035
alpha irrep_nelec = [2, 0, 0, 0, 0, 1, 1, 1]
beta  irrep_nelec = [2, 0, 0, 0, 0, 0, 0, 0]
alpha-Ag nocc = 2  HOMO = -2.0715789125231  LUMO = -0.139228840096035
   mo_energy = [-2.14108418e+01 -2.07157891e+00 -1.39228840e-01  1.19304815e-01
  1.19304815e-01  3.57268818e-01  8.16302519e-01  8.16302519e-01
  2.18945960e+00  2.18945960e+00  2.18945960e+00  2.25121922e+00
  2.64358376e+00  2.64358376e+00  6.47980391e+00  6.47980391e+00
  6.47980391e+00  7.53860924e+00  7.53860924e+00  8.51894192e+00
  1.83536843e+01  1.83536843e+01  1.83536843e+01  2.08119950e+01
  2.08119950e+01  2.73892813e+01  6.01754199e+01  6.01754199e+01
  8.01172101e+01  1.80357907e+02  1.80357907e+02  2.17904851e+02
  2.44954535e+02  2.44954535e+02  2.44954535e+02  5.55707800e+02
  5.55707800e+02  5.81466445e+02  2.06697230e+03]
alpha-B1g nocc = 0
   mo_energy = [1.19304815e-01 8.16302519e-01 2.18945960e+00 2.18945960e+00
 2.64358376e+00 6.47980391e+00 6.47980391e+00 7.53860924e+00
 1.83536843e+01 1.83536843e+01 2.08119950e+01 6.01754199e+01
 1.80357907e+02 2.44954535e+02 2.44954535e+02 5.55707800e+02]
alpha-B2g nocc = 0
   mo_energy = [1.19304815e-01 8.16302519e-01 2.18945960e+00 2.18945960e+00
 2.64358376e+00 6.47980391e+00 6.47980391e+00 7.53860924e+00
 1.83536843e+01 1.83536843e+01 2.08119950e+01 6.01754199e+01
 1.80357907e+02 2.44954535e+02 2.44954535e+02 5.55707800e+02]
alpha-B3g nocc = 0
   mo_energy = [1.19304815e-01 8.16302519e-01 2.18945960e+00 2.18945960e+00
 2.64358376e+00 6.47980391e+00 6.47980391e+00 7.53860924e+00
 1.83536843e+01 1.83536843e+01 2.08119950e+01 6.01754199e+01
 1.80357907e+02 2.44954535e+02 2.44954535e+02 5.55707800e+02]
alpha-Au nocc = 0
   mo_energy = [  0.65028119   2.38656318   5.66190638   5.66190638   6.73244824
  15.55716185  15.55716185  18.35161003  70.99182403 290.68444965]
alpha-B1u nocc = 1  HOMO = -1.33078864193599  LUMO = -0.0927889354551324
   mo_energy = [-1.33078864e+00 -9.27889355e-02  1.75031947e-01  6.50281191e-01
  6.50281191e-01  1.14750988e+00  2.38656318e+00  2.38656318e+00
  4.12275660e+00  5.66190638e+00  5.66190638e+00  5.66190638e+00
  6.73244824e+00  6.73244824e+00  1.25819151e+01  1.55571619e+01
  1.55571619e+01  1.55571619e+01  1.83516100e+01  1.83516100e+01
  3.71209708e+01  7.09918240e+01  7.09918240e+01  1.06404110e+02
  2.90684450e+02  2.90684450e+02  2.97612082e+02  8.36345264e+02]
alpha-B2u nocc = 1  HOMO = -1.33078864193598  LUMO = -0.0927889354551292
   mo_energy = [-1.33078864e+00 -9.27889355e-02  1.75031947e-01  6.50281191e-01
  6.50281191e-01  1.14750988e+00  2.38656318e+00  2.38656318e+00
  4.12275660e+00  5.66190638e+00  5.66190638e+00  5.66190638e+00
  6.73244824e+00  6.73244824e+00  1.25819151e+01  1.55571619e+01
  1.55571619e+01  1.55571619e+01  1.83516100e+01  1.83516100e+01
  3.71209708e+01  7.09918240e+01  7.09918240e+01  1.06404110e+02
  2.90684450e+02  2.90684450e+02  2.97612082e+02  8.36345264e+02]
alpha-B3u nocc = 1  HOMO = -1.330788641936  LUMO = -0.0927889354550864
   mo_energy = [-1.33078864e+00 -9.27889355e-02  1.75031947e-01  6.50281191e-01
  6.50281191e-01  1.14750988e+00  2.38656318e+00  2.38656318e+00
  4.12275660e+00  5.66190638e+00  5.66190638e+00  5.66190638e+00
  6.73244824e+00  6.73244824e+00  1.25819151e+01  1.55571619e+01
  1.55571619e+01  1.55571619e+01  1.83516100e+01  1.83516100e+01
  3.71209708e+01  7.09918240e+01  7.09918240e+01  1.06404110e+02
  2.90684450e+02  2.90684450e+02  2.97612082e+02  8.36345264e+02]
beta-Ag nocc = 2  HOMO = -1.53071614225275  LUMO = -0.123283338108594
   mo_energy = [-2.12781129e+01 -1.53071614e+00 -1.23283338e-01  1.29923598e-01
  1.29923598e-01  4.08850447e-01  8.92160064e-01  8.92160064e-01
  2.20014796e+00  2.20014796e+00  2.20014796e+00  2.36427330e+00
  2.80843310e+00  2.80843310e+00  6.52936580e+00  6.52936580e+00
  6.52936580e+00  7.71346977e+00  7.71346977e+00  8.64178838e+00
  1.84424643e+01  1.84424643e+01  1.84424643e+01  2.09329179e+01
  2.09329179e+01  2.74695728e+01  6.02347203e+01  6.02347203e+01
  8.01551392e+01  1.80378939e+02  1.80378939e+02  2.17919952e+02
  2.44974662e+02  2.44974662e+02  2.44974662e+02  5.55713673e+02
  5.55713673e+02  5.81471785e+02  2.06697425e+03]
beta-B1g nocc = 0
   mo_energy = [1.29923598e-01 8.92160064e-01 2.20014796e+00 2.20014796e+00
 2.80843310e+00 6.52936580e+00 6.52936580e+00 7.71346977e+00
 1.84424643e+01 1.84424643e+01 2.09329179e+01 6.02347203e+01
 1.80378939e+02 2.44974662e+02 2.44974662e+02 5.55713673e+02]
beta-B2g nocc = 0
   mo_energy = [1.29923598e-01 8.92160064e-01 2.20014796e+00 2.20014796e+00
 2.80843310e+00 6.52936580e+00 6.52936580e+00 7.71346977e+00
 1.84424643e+01 1.84424643e+01 2.09329179e+01 6.02347203e+01
 1.80378939e+02 2.44974662e+02 2.44974662e+02 5.55713673e+02]
beta-B3g nocc = 0
   mo_energy = [1.29923598e-01 8.92160064e-01 2.20014796e+00 2.20014796e+00
 2.80843310e+00 6.52936580e+00 6.52936580e+00 7.71346977e+00
 1.84424643e+01 1.84424643e+01 2.09329179e+01 6.02347203e+01
 1.80378939e+02 2.44974662e+02 2.44974662e+02 5.55713673e+02]
beta-Au nocc = 0
   mo_energy = [  0.65563675   2.43033423   5.68153437   5.68153437   6.83860538
  15.61118477  15.61118477  18.46886168  71.05227358 290.69872448]
beta-B1u nocc = 0
   mo_energy = [-3.82344689e-01 -7.24927949e-02  2.40351252e-01  6.55636749e-01
  6.55636749e-01  1.28013483e+00  2.43033423e+00  2.43033423e+00
  4.27626600e+00  5.68153437e+00  5.68153437e+00  5.68153437e+00
  6.83860538e+00  6.83860538e+00  1.27047461e+01  1.56111848e+01
  1.56111848e+01  1.56111848e+01  1.84688617e+01  1.84688617e+01
  3.71919142e+01  7.10522736e+01  7.10522736e+01  1.06435002e+02
  2.90698724e+02  2.90698724e+02  2.97623244e+02  8.36348801e+02]
beta-B2u nocc = 0
   mo_energy = [-3.82344689e-01 -7.24927949e-02  2.40351252e-01  6.55636749e-01
  6.55636749e-01  1.28013483e+00  2.43033423e+00  2.43033423e+00
  4.27626600e+00  5.68153437e+00  5.68153437e+00  5.68153437e+00
  6.83860538e+00  6.83860538e+00  1.27047461e+01  1.56111848e+01
  1.56111848e+01  1.56111848e+01  1.84688617e+01  1.84688617e+01
  3.71919142e+01  7.10522736e+01  7.10522736e+01  1.06435002e+02
  2.90698724e+02  2.90698724e+02  2.97623244e+02  8.36348801e+02]
beta-B3u nocc = 0
   mo_energy = [-3.82344689e-01 -7.24927949e-02  2.40351252e-01  6.55636749e-01
  6.55636749e-01  1.28013483e+00  2.43033423e+00  2.43033423e+00
  4.27626600e+00  5.68153437e+00  5.68153437e+00  5.68153437e+00
  6.83860538e+00  6.83860538e+00  1.27047461e+01  1.56111848e+01
  1.56111848e+01  1.56111848e+01  1.84688617e+01  1.84688617e+01
  3.71919142e+01  7.10522736e+01  7.10522736e+01  1.06435002e+02
  2.90698724e+02  2.90698724e+02  2.97623244e+02  8.36348801e+02]
multiplicity <S^2> = 3.7555583  2S+1 = 4.0027782
E1 = -98.47034784216959  Ecoul = 24.093366075353448
Extra cycle  E= -74.3769817668161  delta_E= -4.26e-14  |g|= 2.34e-12  |ddm|= 9.32e-13
    CPU time for scf_cycle    113.55 sec, wall time     35.85 sec
    CPU time for SCF    113.60 sec, wall time     35.98 sec
converged SCF energy = -74.3769817668161  <S^2> = 3.7555583  2S+1 = 4.0027782
