Starting run at: Sat Feb 15 10:16:13 EST 2025
 **********************************************************************
                          MRCC program system
 **********************************************************************
 
                              Written by
     Mihaly Kallay, Peter R. Nagy, David Mester, Laszlo Gyevi-Nagy,
        Jozsef Csoka, P. Bernat Szabo, Zoltan Rolik, Gyula Samu,
     Jozsef Csontos, Bence Hegely, Adam Ganyecz, Istvan Ladjanszki,
       Lorant Szegedy, Bence Ladoczki, Klara Petrov, Mate Farkas,
                    Pal D. Mezei, and Reka A. Horvath
 
        Department of Physical Chemistry and Materials Science
            Budapest University of Technology and Economics
                  Budapest P.O.Box 91, H-1521 Hungary
 
                              www.mrcc.hu
 
                     Release date: August 28, 2023

 ************************ 2025-02-15 10:16:14 *************************
 Executing minp...

 Reading input from MINP...
 
 Input file:
 
basis=aCVDZ-EMSL
iface=cfour
uncontract=off
calc=CC(8)
ccprog=mrcc
mem=40GB
core=corr
itol=18
scftol=13
cctol=5
ccmaxit=999
scfmaxit=9999
scfiguess=ao
scftype=UHF
#rohftype=semicanonical
rest=2
charge=+0
mult=3
refdet=serialno
1-3
4,5

symm=2
occ=2,0,0,0,0,1,1,1/2,0,0,0,0,0,0,1
geom
O

#Li 1 R
#R=3.065

#unit=angstroms

tprint=0.01
verbosity=3
#nstate=4
 
 
 Checking keyword combinations...
 
 Keywords:
 
 active=none
 agrid=ld0006-ld0590
 agrid_pssp=ld0006-ld0194
 agrid_pssp_sm=ld0006-ld0074
 basis=acvdz-emsl
 basis_sm=none
 basopt=off
 bfbasis=none
 bfgsmem=10
 bfgstol=1.0d-3
 boysalg=jacobi
 bpcompo=0.985
 bpcompv=0.98
 bpdfo=0.985
 bpocc=0.985
 bppdo=0.985
 bppdv=0.98
 bpedo=0.985
 bpedv=0.98
 calc=cc(8)
 ccmaxit=999
 ccprog=mrcc
 ccsdalg=disk
 ccsdmkl=seq
 ccsdrest=off
 ccsdthreads=2
 cctol=5
 charge=+0
 cialg=disk
 ciguess=off
 cmpgrp=auto
 comprest=off
 coord_sys=ric
 core=corr
 corembed=off
 csapprox=off
 cvs=off
 dboc=off
 delocsomofact=
 dendec=cholesky
 dens=0
 denscorr=0
 dfalg=lineq
 dfbasis_cab=none
 dfbasis_cor=none
 dfbasis_scf=none
 dfbasis_scf_sm=none
 dfintran=ovirt
 dft=off
 dhexc=adc(2)
 diag=david
 docc=
 domrad=10.d0
 drpaalg=fit
 dual=off
 dual_df=off
 ecp=auto
 edisp=off
 edisp_embed=off
 embed=off
 epairestfact=off
 epairscale=1.d0
 etemp=300
 epert=none
 eps=
 espcharge=off
 excrad=0.d0
 excrad_fin=0.000000000D+00
 fitting=coulomb
 fmm=off
 fmmord=8
 fnonorb=
 freq=off
 gamma=1.d0
 gauss=spher
 geom=zmat
 gopt=off
 ghost=none
 gtol=7
 grdens=off
 grid=auto
 grid_sm=auto
 gridbatch_cos=2000
 grtol=10
 guido_ct=off
 hamilton=dc
 iface=cfour
 intalg=auto
 ip_ea=off
 itol=18
 laptol=1.d-2
 lccoporder=trffirst
 lcorthr=normal
 lccrest=off
 ldfgrad_tol=8
 lmp2dens=on
 lnoepso=0.d0
 lnoepsv=1e-6
 localcc=off
 localcorrsymm=off
 locintrf=disk
 mact=
 maxact=off
 maxdim=200
 maxex=0
 maxmicroit=100
 mcscfiguess=hf
 mem=40gb
 mmprog=
 molden=on
 mpitasks=1
 mulmet=0
 mult=3
 nab=off
 nacto=0
 nactv=0
 naf_amp=3.16d-3
 naf_cor=off
 naf_f12=off
 naf_scf=off
 nafalg=albe
 nafdens=off
 naftyp=
 nchol=auto
 ndeps=1e-3
 nstate=1
 nsing=0
 nto=off
 ntrip=0
 num_grad=off
 occ=2,0,0,0,0,1,1,1/2,0,0,0,0,0,0,1
 occri=off
 oniom=off
 oniom_eechg=off
 oniom_pcm=off
 oniom_qcorr=off
 optalg=
 optmaxit=50
 optetol=1e-6
 optex=0
 optgtol=1e-4
 optstol=1e-3
 orblocc=off
 orbloce=off
 orbloco=off
 orblocv=off
 orblocguess=cholesky
 osveps=1e-3
 ovirt=off
 ovltol=1e-7
 ovosnorb=80.0
 pao_subsys_tol=1e-3
 pcm=off
 popul=off
 pressure=100000
 pssp=off
 ptfreq=0.0
 ptthreads=2
 qmreg=
 qmmm=off
 qro=off
 qscf=off
 redcost_exc=off
 redcost_tddft=off
 refdet=serialno
 rest=2
 rgrid=log3
 rism=off
 rohfcore=semicanonical
 rohftype=standard
 scfalg=auto
 scf_conv=auto
 scfdamp=0.0d0
 scfdamp_mode=off
 scfdamp_end=9999
 scfdamp_dampstep=0.d0
 scfdamp_dtol=0.0d0
 scfdamp_maxfact=0.0d0
 scfdamp_minfact=0.0d0
 scfdiis=on
 scfdiis_dtol=0.0d0
 scfdiis_end=9999
 scfdiis_start=2
 scfdiis_step=1
 scfdiis_watch=off
 scfdiis_wrange=10
 scfdiis_wlimit=5
 scfdiis_delmax=2
 scfdtol=14
 scfext=10
 scfguessdens=
 scfiguess=ao
 scfloc=off
 scflshift=0.20
 scflshift_end=8
 scflshift_dtol=0.0
 scflshift_gaptol=0.20
 scfmaxit=9999
 scftype=uhf
 scftol=13
 scspe=1.d0
 scsph=1.d0
 scsps=1.2d0
 scsps_t=1.2d0
 scspt=0.33333333333333
 scspt_t=0.33333333333333
 scspv=1.d0
 spairtol=1e-4
 sqmprog=
 subminp=top
 symm=2
 talg=occ
 temp=298.15
 test=off
 theodore=off
 tlmo=0.999
 tpao=0.94
 tprint=0.01
 uncontract=off
 unit=angs
 usedisk=2
 verbosity=3
 wpairtol=0.100000000E-05

 ************************ 2025-02-15 10:16:15 *************************
 Executing goldstone...

 Generation of CC equations in terms of H and T...
 Generation of antisymmetrized Goldstone diagrams...
 Number of diagrams in T^1 equations:    15
 Number of diagrams in T^2 equations:    38
 Number of diagrams in T^3 equations:    54
 Number of diagrams in T^4 equations:    81
 Number of diagrams in T^5 equations:   106
 Number of diagrams in T^6 equations:   142
 Number of diagrams in T^7 equations:   175
 Number of diagrams in T^8 equations:   215
 Translation of diagrams to factorized equations...
 Optimizing intermediate calculation...
 Number of floating-point operations per iteration step:   2.4348E+13
 Probable CPU time per iteration step (hours):          243.48
 Required memory (Mbytes):         32997.5
 Number of intermediates:                                 300
 Number of intermediates to be stored:                    110
 Length of intermediate file (Mbytes):          6090.5

 ************************ 2025-02-15 10:16:37 *************************
 Executing xmrcc...

 **********************************************************************
 CC(                     8 ) calculation 
 
 
 Allocation of        40960.0 Mbytes of memory...
 Number of spinorbitals:                    54
 Number of alpha electrons:                        5
 Number of beta electrons:                         3
 Spin multiplicity:                     2
 z-component of spin:  1.0
 Spatial symmetry:                      2
 Convergence criterion:  1.0E-05
 Construction of occupation graphs...
 Number of                     0 -fold excitations:                      1
 Number of                     1 -fold excitations:                     40
 Number of                     2 -fold excitations:                   1589
 Number of                     3 -fold excitations:                  34912
 Number of                     4 -fold excitations:                 410424
 Number of                     5 -fold excitations:                2512786
 Number of                     6 -fold excitations:                7923136
 Number of                     7 -fold excitations:               11977998
 Number of                     8 -fold excitations:                6661314
 Total number of configurations:               29522200
 Calculation of coupling coefficients...
 Length of intermediate file (Mbytes):          3236.4
 
 ======================================================================
 
 Memory requirements /Mbyte/: 
               Minimal        Optimal
 Real*8:      20382.1218     20382.1218
 Integer:        25.6304
 Total:       20407.7521     20407.7521
 

 ************************ 2025-02-15 10:16:43 *************************
 Executing goldstone...

 Generation of CC equations in terms of H and T...
 Generation of antisymmetrized Goldstone diagrams...
 Number of diagrams in T^1 equations:    15
 Number of diagrams in T^2 equations:    34
 Number of diagrams in T^3 equations:     2
 Translation of diagrams to factorized equations...
 Optimizing intermediate calculation...
 Number of floating-point operations per iteration step:   9.1673E+06
 Probable CPU time per iteration step (hours):            0.00
 Required memory (Mbytes):            38.2
 Number of intermediates:                                  49
 Number of intermediates to be stored:                     20
 Length of intermediate file (Mbytes):             1.0

 ************************ 2025-02-15 10:16:58 *************************
 Executing xmrcc...

 **********************************************************************
 CC(2)(3) calculation 
 
 
 Allocation of        40960.0 Mbytes of memory...
 Number of spinorbitals:                    54
 Number of alpha electrons:                        5
 Number of beta electrons:                         3
 Spin multiplicity:                     2
 z-component of spin:  1.0
 Spatial symmetry:                      2
 Convergence criterion:  1.0E-05
 Construction of occupation graphs...
 Number of                     0 -fold excitations:                      1
 Number of                     1 -fold excitations:                     40
 Number of                     2 -fold excitations:                   1589
 Total number of configurations:                   1630
 Calculation of coupling coefficients...
 Length of intermediate file (Mbytes):             1.0
 
 ======================================================================
 
 Spin case  1   Alpha:  0   Beta:  3
 Number of excitations:                    253
 Spin case  2   Alpha:  1   Beta:  2
 Number of excitations:                  11622
 Spin case  3   Alpha:  2   Beta:  1
 Number of excitations:                  21105
 Spin case  4   Alpha:  3   Beta:  0
 Number of excitations:                   1932
 Number of                     3 -fold excitations:                  34912
 
 Memory requirements /Mbyte/: 
               Minimal        Optimal
 Real*8:         22.5773        22.5773
 Integer:         3.4763
 Total:          26.0536        26.0536
 

 ************************ 2025-02-15 10:16:59 *************************
 Executing mrcc...

 **********************************************************************
 CCSD(T) calculation                                                    
 
 
 OpenMP parallel version is running.
 Number of CPU cores:   4
 Allocation of           22.6 Mbytes of memory...
 Number of spinorbitals:  54
 Number of alpha electrons:  5
 Number of beta  electrons:  3
 Spin multiplicity: 3
 z-component of spin:  1.0
 Spatial symmetry: 2
 Convergence criterion:  1.0E-05
 Construction of occupation graphs...
 Number of 0-fold excitations: 1
 Number of 1-fold excitations: 40
 Number of 2-fold excitations: 1589
 Total number of determinants: 1630
 Calculation of coupling coefficients...
 Initial cluster amplitudes are generated.
 Length of intermediate file (Mbytes):             1.0
 Reading integral list from unit 55...
 Sorting integrals...
 Sorting integrals...
 Sorting integrals...
 Sorting integrals...
 Energy of reference determinant [au]:     -74.658656685204
 Calculation of MP denominators...
 
 Starting CC iteration...
 ======================================================================
 Norm of residual vector:     2.08938339
 CPU time [min]:     0.033                   Wall time [min]:     0.019
 
 Iteration  1  CC energy:   -74.90621418  Energy decrease:   0.24755750
 ======================================================================
 Norm of residual vector:     0.27603607
 CPU time [min]:     0.036                   Wall time [min]:     0.020
 
 Iteration  2  CC energy:   -74.94638887  Energy decrease:   0.04017468
 ======================================================================
 Norm of residual vector:     0.08525555
 CPU time [min]:     0.039                   Wall time [min]:     0.020
 
 Iteration  3  CC energy:   -74.96472301  Energy decrease:   0.01833415
 ======================================================================
 Norm of residual vector:     0.02312707
 CPU time [min]:     0.043                   Wall time [min]:     0.021
 
 Iteration  4  CC energy:   -74.96127129  Energy decrease:   0.00345172
 ======================================================================
 Norm of residual vector:     0.00936719
 CPU time [min]:     0.046                   Wall time [min]:     0.022
 
 Iteration  5  CC energy:   -74.96392904  Energy decrease:   0.00265775
 ======================================================================
 Norm of residual vector:     0.00446414
 CPU time [min]:     0.049                   Wall time [min]:     0.023
 
 Iteration  6  CC energy:   -74.96331664  Energy decrease:   0.00061240
 ======================================================================
 Norm of residual vector:     0.00164043
 CPU time [min]:     0.053                   Wall time [min]:     0.024
 
 Iteration  7  CC energy:   -74.96329058  Energy decrease:   0.00002606
 ======================================================================
 Norm of residual vector:     0.00052377
 CPU time [min]:     0.056                   Wall time [min]:     0.025
 
 Iteration  8  CC energy:   -74.96331568  Energy decrease:   0.00002510
 ======================================================================
 Norm of residual vector:     0.00016008
 CPU time [min]:     0.059                   Wall time [min]:     0.025
 
 Iteration  9  CC energy:   -74.96332594  Energy decrease:   0.00001026
 ======================================================================
 Norm of residual vector:     0.00003803
 CPU time [min]:     0.063                   Wall time [min]:     0.026
 
 Iteration 10  CC energy:   -74.96331947  Energy decrease:   0.00000647
 ======================================================================
 Norm of residual vector:     0.00001169
 CPU time [min]:     0.066                   Wall time [min]:     0.027
 
 Iteration 11  CC energy:   -74.96332208  Energy decrease:   0.00000261
 ======================================================================
 Norm of residual vector:     0.00000334
 CPU time [min]:     0.069                   Wall time [min]:     0.028
 
 Iteration 12  CC energy:   -74.96332171  Energy decrease:   0.00000037
 ======================================================================
 
 Iteration has converged in 12 steps.
 
 Final results:
 Total CCSD energy [au]:                      -74.963321710891
 
 Perturbative corrections are calculated...
 ======================================================================
 Spin case  1   Alpha:  0   Beta:  3
 Number of excitations:        253
 CPU time [min]:     0.071                   Wall time [min]:     0.028
 ======================================================================
 Spin case  2   Alpha:  1   Beta:  2
 Number of excitations:        11622
 CPU time [min]:     0.074                   Wall time [min]:     0.029
 ======================================================================
 Spin case  3   Alpha:  2   Beta:  1
 Number of excitations:        21105
 CPU time [min]:     0.079                   Wall time [min]:     0.030
 ======================================================================
 Spin case  4   Alpha:  3   Beta:  0
 Number of excitations:        1932
 CPU time [min]:     0.080                   Wall time [min]:     0.031
 ======================================================================
 Number of 3-fold excitations: 34912
 
 
 CPU time [min]:     0.080                   Wall time [min]:     0.031
 
 Total CCSD[T] energy [au]:                   -74.965285234953
 Total CCSD(T) energy [au]:                   -74.964542898095
 
 Dominant cluster amplitudes
 Printing threshold:  1.00E-02
 
    1.000000  Reference determinant                                     
   -0.034696  2b -> 10b                                                 
    0.014315  2b -> 14b                                                 
   -0.010344  2b -> 18b                                                 
   -0.020411  2b -> 19b                                                 
   -0.576553  3b -> 7b                                                  
   -0.140218  3b -> 15b                                                 
    0.020730  2a -> 14a                                                 
    0.019753  2a -> 23a                                                 
    0.025788  3a -> 7a                                                  
   -0.010579  4a -> 16a                                                 
   -0.024584  5a -> 9a                                                  
   -0.027584  5a -> 17a                                                 
   -0.013681  2b 3b -> 4b 11b                                           
    0.011301  2b 3b -> 8b 11b                                           
   -0.017826  2b 3b -> 5b 13b                                           
    0.015051  2b 3b -> 15b 18b                                          
   -0.010963  2b 3b -> 5b 22b                                           
   -0.018570  2a 2b -> 18a 18b                                          
   -0.017169  3a 3b -> 10a 14b                                          
   -0.013520  3a 3b -> 18a 18b                                          
   -0.010373  3a 3b -> 10a 23b                                          
   -0.013811  3a 3b -> 19a 23b                                          
   -0.017206  3a 3b -> 13a 13b                                          
   -0.010180  3a 3b -> 13a 22b                                          
   -0.013778  3a 3b -> 22a 22b                                          
   -0.017220  3a 3b -> 11a 11b                                          
   -0.010449  3a 3b -> 11a 20b                                          
   -0.013835  3a 3b -> 20a 20b                                          
   -0.025230  3a 3b -> 7a 7b                                            
   -0.030657  3a 3b -> 15a 7b                                           
   -0.030291  3a 3b -> 7a 15b                                           
   -0.053473  3a 3b -> 15a 15b                                          
   -0.010850  2a 2b -> 16a 16b                                          
    0.011643  2a 2b -> 9a 5b                                            
    0.012092  2a 2b -> 17a 5b                                           
    0.010435  3a 3b -> 9a 5b                                            
   -0.012301  5a 3b -> 14a 13b                                          
   -0.012282  5a 3b -> 12a 11b                                          
   -0.012219  5a 3b -> 13a 14b                                          
    0.020514  5a 3b -> 7a 5b                                            
    0.012471  5a 3b -> 15a 5b                                           
   -0.016941  5a 3b -> 9a 7b                                            
   -0.023710  5a 3b -> 17a 7b                                           
   -0.019937  5a 3b -> 9a 15b                                           
   -0.039201  5a 3b -> 17a 15b                                          
   -0.012226  4a 3b -> 12a 13b                                          
    0.014202  4a 3b -> 7a 4b                                            
   -0.013514  4a 3b -> 7a 8b                                            
   -0.017004  4a 3b -> 8a 7b                                            
   -0.023345  4a 3b -> 16a 7b                                           
   -0.020271  4a 3b -> 8a 15b                                           
   -0.038869  4a 3b -> 16a 15b                                          
   -0.013327  2a 3b -> 6a 7b                                            
   -0.015308  2a 3b -> 18a 7b                                           
   -0.019078  2a 3b -> 6a 15b                                           
   -0.030266  2a 3b -> 18a 15b                                          
   -0.012380  3a 2b -> 18a 15b                                          
   -0.011982  2a 3b -> 13a 5b                                           
   -0.013139  2a 3b -> 22a 5b                                           
   -0.025860  3a 2b -> 13a 5b                                           
   -0.022186  3a 2b -> 22a 5b                                           
   -0.019973  3a 2b -> 11a 4b                                           
   -0.015814  3a 2b -> 20a 4b                                           
    0.016461  3a 2b -> 11a 8b                                           
    0.014800  3a 2b -> 20a 8b                                           
   -0.012973  2a 3b -> 15a 18b                                          
   -0.014358  3a 2b -> 15a 6b                                           
   -0.010198  3a 2b -> 7a 18b                                           
   -0.023309  3a 2b -> 15a 18b                                          
    0.020113  4a 2b -> 10a 4b                                           
    0.012212  4a 2b -> 14a 4b                                           
    0.015820  4a 2b -> 19a 4b                                           
   -0.010280  4a 2b -> 6a 8b                                            
   -0.016652  4a 2b -> 10a 8b                                           
   -0.010041  4a 2b -> 14a 8b                                           
   -0.014771  4a 2b -> 19a 8b                                           
   -0.012417  4a 2b -> 18a 16b                                          
   -0.026931  4a 2b -> 12a 5b                                           
   -0.022902  4a 2b -> 21a 5b                                           
   -0.014287  4a 2b -> 16a 6b                                           
   -0.023267  4a 2b -> 16a 18b                                          
    0.014669  5a 2b -> 6a 5b                                            
   -0.030837  5a 2b -> 14a 5b                                           
    0.010021  5a 2b -> 18a 5b                                           
   -0.026269  5a 2b -> 23a 5b                                           
   -0.010710  5a 2b -> 18a 17b                                          
   -0.020768  5a 2b -> 12a 4b                                           
   -0.016468  5a 2b -> 21a 4b                                           
    0.017155  5a 2b -> 12a 8b                                           
    0.015351  5a 2b -> 21a 8b                                           
   -0.014478  5a 2b -> 17a 6b                                           
   -0.023491  5a 2b -> 17a 18b                                          
   -0.011239  4a 5a -> 12a 14a                                          
    0.010983  4a 5a -> 9a 16a                                           
   -0.011345  4a 5a -> 8a 17a                                           
   -0.024016  4a 5a -> 16a 17a                                          
   -0.010873  4a 5a -> 21a 23a                                          
   -0.011863  3a 5a -> 13a 14a                                          
    0.010536  3a 5a -> 9a 15a                                           
   -0.012040  3a 5a -> 7a 17a                                           
   -0.023267  3a 5a -> 15a 17a                                          
   -0.010892  3a 5a -> 22a 23a                                          
   -0.014094  3a 4a -> 10a 11a                                          
    0.010724  3a 4a -> 8a 15a                                           
   -0.011856  3a 4a -> 7a 16a                                           
   -0.023035  3a 4a -> 15a 16a                                          
   -0.012627  3a 4a -> 19a 20a                                          
    0.013121  2a 3a -> 15a 18a                                          
    0.013403  2a 4a -> 16a 18a                                          
    0.013555  2a 5a -> 17a 18a                                          

 ************************ 2025-02-15 10:17:01 *************************
 Executing goldstone...

 Generation of CC equations in terms of H and T...
 Generation of antisymmetrized Goldstone diagrams...
 Number of diagrams in T^1 equations:    15
 Number of diagrams in T^2 equations:    38
 Number of diagrams in T^3 equations:    50
 Number of diagrams in T^4 equations:     5
 Translation of diagrams to factorized equations...
 Optimizing intermediate calculation...
 Number of floating-point operations per iteration step:   5.2767E+08
 Probable CPU time per iteration step (hours):            0.01
 Required memory (Mbytes):            38.2
 Number of intermediates:                                  82
 Number of intermediates to be stored:                     31
 Length of intermediate file (Mbytes):             1.8

 ************************ 2025-02-15 10:17:04 *************************
 Executing xmrcc...

 **********************************************************************
 CC(3)(4) calculation 
 
 
 Allocation of        40960.0 Mbytes of memory...
 Number of spinorbitals:                    54
 Number of alpha electrons:                        5
 Number of beta electrons:                         3
 Spin multiplicity:                     2
 z-component of spin:  1.0
 Spatial symmetry:                      2
 Convergence criterion:  1.0E-05
 Construction of occupation graphs...
 Number of                     0 -fold excitations:                      1
 Number of                     1 -fold excitations:                     40
 Number of                     2 -fold excitations:                   1589
 Number of                     3 -fold excitations:                  34912
 Total number of configurations:                  36542
 Calculation of coupling coefficients...
 Length of intermediate file (Mbytes):             1.7
 
 ======================================================================
 
 Spin case  1   Alpha:  1   Beta:  3
 Number of excitations:                  27632
 Spin case  2   Alpha:  2   Beta:  2
 Number of excitations:                 239487
 Spin case  3   Alpha:  3   Beta:  1
 Number of excitations:                 138604
 Spin case  4   Alpha:  4   Beta:  0
 Number of excitations:                   4701
 Number of                     4 -fold excitations:                 410424
 
 Memory requirements /Mbyte/: 
               Minimal        Optimal
 Real*8:         41.5920        41.5920
 Integer:         4.5031
 Total:          46.0951        46.0951
 

 ************************ 2025-02-15 10:17:05 *************************
 Executing mrcc...

 **********************************************************************
 CCSDT(Q) calculation                                                   
 
 
 OpenMP parallel version is running.
 Number of CPU cores:   4
 Allocation of           41.6 Mbytes of memory...
 Number of spinorbitals:  54
 Number of alpha electrons:  5
 Number of beta  electrons:  3
 Spin multiplicity: 3
 z-component of spin:  1.0
 Spatial symmetry: 2
 Convergence criterion:  1.0E-05
 Construction of occupation graphs...
 Number of 0-fold excitations: 1
 Number of 1-fold excitations: 40
 Number of 2-fold excitations: 1589
 Number of 3-fold excitations: 34912
 Total number of determinants: 36542
 Calculation of coupling coefficients...
 Initial cluster amplitudes are read from unit 16.
 Length of intermediate file (Mbytes):             1.7
 Reading integral list from unit 55...
 Sorting integrals...
 Sorting integrals...
 Sorting integrals...
 Sorting integrals...
 Energy of reference determinant [au]:     -74.658656685204
 Calculation of MP denominators...
 
 Starting CC iteration...
 ======================================================================
 Norm of residual vector:     0.15606900
 CPU time [min]:     0.056                   Wall time [min]:     0.022
 
 Iteration  1  CC energy:   -74.96332169  Energy decrease:   0.00000002
 ======================================================================
 Norm of residual vector:     0.02424956
 CPU time [min]:     0.076                   Wall time [min]:     0.027
 
 Iteration  2  CC energy:   -74.96582392  Energy decrease:   0.00250223
 ======================================================================
 Norm of residual vector:     0.00885822
 CPU time [min]:     0.096                   Wall time [min]:     0.032
 
 Iteration  3  CC energy:   -74.96600017  Energy decrease:   0.00017624
 ======================================================================
 Norm of residual vector:     0.00341522
 CPU time [min]:     0.127                   Wall time [min]:     0.041
 
 Iteration  4  CC energy:   -74.96619112  Energy decrease:   0.00019096
 ======================================================================
 Norm of residual vector:     0.00154552
 CPU time [min]:     0.148                   Wall time [min]:     0.046
 
 Iteration  5  CC energy:   -74.96624560  Energy decrease:   0.00005447
 ======================================================================
 Norm of residual vector:     0.00067566
 CPU time [min]:     0.170                   Wall time [min]:     0.052
 
 Iteration  6  CC energy:   -74.96628910  Energy decrease:   0.00004350
 ======================================================================
 Norm of residual vector:     0.00027955
 CPU time [min]:     0.192                   Wall time [min]:     0.058
 
 Iteration  7  CC energy:   -74.96629156  Energy decrease:   0.00000246
 ======================================================================
 Norm of residual vector:     0.00011154
 CPU time [min]:     0.216                   Wall time [min]:     0.064
 
 Iteration  8  CC energy:   -74.96629063  Energy decrease:   0.00000092
 ======================================================================
 Norm of residual vector:     0.00003684
 CPU time [min]:     0.240                   Wall time [min]:     0.071
 
 Iteration  9  CC energy:   -74.96628851  Energy decrease:   0.00000213
 ======================================================================
 Norm of residual vector:     0.00001180
 CPU time [min]:     0.264                   Wall time [min]:     0.077
 
 Iteration 10  CC energy:   -74.96628838  Energy decrease:   0.00000013
 ======================================================================
 Norm of residual vector:     0.00000382
 CPU time [min]:     0.286                   Wall time [min]:     0.083
 
 Iteration 11  CC energy:   -74.96628838  Energy decrease:   4.4837E-09
 ======================================================================
 
 Iteration has converged in 11 steps.
 
 Final results:
 Total CCSDT energy [au]:                     -74.966288380193
 
 Perturbative corrections are calculated...
 ======================================================================
 Spin case  1   Alpha:  1   Beta:  3
 Number of excitations:        27632
 CPU time [min]:     0.362                   Wall time [min]:     0.102
 ======================================================================
 Spin case  2   Alpha:  2   Beta:  2
 Number of excitations:        239487
 CPU time [min]:     0.557                   Wall time [min]:     0.151
 ======================================================================
 Spin case  3   Alpha:  3   Beta:  1
 Number of excitations:        138604
 CPU time [min]:     0.679                   Wall time [min]:     0.182
 ======================================================================
 Spin case  4   Alpha:  4   Beta:  0
 Number of excitations:        4701
 CPU time [min]:     0.690                   Wall time [min]:     0.184
 ======================================================================
 Number of 4-fold excitations: 410424
 
 T_2^+ contribution [au]:                      -0.000120611389
 T_3^+ contribution [au]:                      -0.000033760718
 T_1^+ * T_2^+ contribution [au]:              -0.000031709452
 T_1^+ * <ab||ij> contribution [au]:           -0.000020829790
 T_2^+ * f_ai contribution [au]:               -0.000007641525
 
 CPU time [min]:     0.692                   Wall time [min]:     0.185
 
 Total CCSDT[Q] energy [au]:                  -74.966408991582
 Total CCSDT(Q)/A energy [au]:                -74.966474461752
 Total CCSDT(Q)/B energy [au]:                -74.966471223615
 
 Dominant cluster amplitudes
 Printing threshold:  1.00E-02
 
    1.000000  Reference determinant                                     
   -0.034700  2b -> 10b                                                 
    0.014310  2b -> 14b                                                 
   -0.010598  2b -> 18b                                                 
   -0.020457  2b -> 19b                                                 
   -0.577831  3b -> 7b                                                  
   -0.140900  3b -> 15b                                                 
    0.020790  2a -> 14a                                                 
    0.019787  2a -> 23a                                                 
    0.027009  3a -> 7a                                                  
   -0.011081  4a -> 16a                                                 
   -0.024656  5a -> 9a                                                  
   -0.028107  5a -> 17a                                                 
   -0.014298  2b 3b -> 4b 11b                                           
    0.011640  2b 3b -> 8b 11b                                           
   -0.018540  2b 3b -> 5b 13b                                           
   -0.010132  2b 3b -> 6b 15b                                           
    0.015224  2b 3b -> 15b 18b                                          
   -0.011042  2b 3b -> 5b 22b                                           
   -0.010106  2a 2b -> 18a 6b                                           
   -0.018685  2a 2b -> 18a 18b                                          
   -0.010204  3a 3b -> 6a 6b                                            
   -0.017743  3a 3b -> 10a 14b                                          
   -0.013643  3a 3b -> 18a 18b                                          
   -0.010399  3a 3b -> 10a 23b                                          
   -0.013851  3a 3b -> 19a 23b                                          
   -0.017752  3a 3b -> 13a 13b                                          
   -0.010130  3a 3b -> 13a 22b                                          
   -0.013799  3a 3b -> 22a 22b                                          
   -0.017741  3a 3b -> 11a 11b                                          
   -0.010396  3a 3b -> 11a 20b                                          
   -0.013849  3a 3b -> 20a 20b                                          
   -0.027451  3a 3b -> 7a 7b                                            
   -0.031369  3a 3b -> 15a 7b                                           
   -0.031128  3a 3b -> 7a 15b                                           
   -0.053760  3a 3b -> 15a 15b                                          
   -0.010993  2a 2b -> 16a 16b                                          
    0.012287  2a 2b -> 9a 5b                                            
    0.012332  2a 2b -> 17a 5b                                           
    0.011154  3a 3b -> 9a 5b                                            
   -0.012778  5a 3b -> 14a 13b                                          
   -0.012744  5a 3b -> 12a 11b                                          
   -0.012748  5a 3b -> 13a 14b                                          
    0.024131  5a 3b -> 7a 5b                                            
    0.013093  5a 3b -> 15a 5b                                           
   -0.018466  5a 3b -> 9a 7b                                            
   -0.024383  5a 3b -> 17a 7b                                           
   -0.020366  5a 3b -> 9a 15b                                           
   -0.039472  5a 3b -> 17a 15b                                          
   -0.012737  4a 3b -> 12a 13b                                          
    0.017280  4a 3b -> 7a 4b                                            
   -0.015947  4a 3b -> 7a 8b                                            
   -0.010159  4a 3b -> 15a 16b                                          
   -0.018640  4a 3b -> 8a 7b                                            
   -0.024047  4a 3b -> 16a 7b                                           
   -0.020768  4a 3b -> 8a 15b                                           
   -0.039142  4a 3b -> 16a 15b                                          
   -0.013990  2a 3b -> 6a 7b                                            
   -0.015395  2a 3b -> 18a 7b                                           
   -0.019273  2a 3b -> 6a 15b                                           
   -0.030289  2a 3b -> 18a 15b                                          
   -0.012421  3a 2b -> 18a 15b                                          
   -0.012326  2a 3b -> 13a 5b                                           
   -0.013389  2a 3b -> 22a 5b                                           
   -0.027111  3a 2b -> 13a 5b                                           
   -0.022275  3a 2b -> 22a 5b                                           
   -0.021075  3a 2b -> 11a 4b                                           
   -0.015872  3a 2b -> 20a 4b                                           
    0.017141  3a 2b -> 11a 8b                                           
    0.014857  3a 2b -> 20a 8b                                           
   -0.012989  2a 3b -> 15a 18b                                          
   -0.014934  3a 2b -> 15a 6b                                           
   -0.010617  3a 2b -> 7a 18b                                           
   -0.023564  3a 2b -> 15a 18b                                          
    0.010091  4a 2b -> 6a 4b                                            
    0.021084  4a 2b -> 10a 4b                                           
    0.012806  4a 2b -> 14a 4b                                           
    0.015871  4a 2b -> 19a 4b                                           
   -0.011013  4a 2b -> 6a 8b                                            
   -0.017242  4a 2b -> 10a 8b                                           
   -0.010391  4a 2b -> 14a 8b                                           
   -0.014823  4a 2b -> 19a 8b                                           
   -0.012580  4a 2b -> 18a 16b                                          
   -0.028058  4a 2b -> 12a 5b                                           
   -0.023007  4a 2b -> 21a 5b                                           
   -0.014871  4a 2b -> 16a 6b                                           
   -0.023521  4a 2b -> 16a 18b                                          
    0.015670  5a 2b -> 6a 5b                                            
   -0.032066  5a 2b -> 14a 5b                                           
    0.010101  5a 2b -> 18a 5b                                           
   -0.026394  5a 2b -> 23a 5b                                           
   -0.010891  5a 2b -> 18a 17b                                          
   -0.021728  5a 2b -> 12a 4b                                           
   -0.016545  5a 2b -> 21a 4b                                           
    0.017728  5a 2b -> 12a 8b                                           
    0.015422  5a 2b -> 21a 8b                                           
   -0.015045  5a 2b -> 17a 6b                                           
   -0.023736  5a 2b -> 17a 18b                                          
   -0.011945  4a 5a -> 12a 14a                                          
    0.011682  4a 5a -> 9a 16a                                           
   -0.012077  4a 5a -> 8a 17a                                           
   -0.024454  4a 5a -> 16a 17a                                          
   -0.010893  4a 5a -> 21a 23a                                          
   -0.012778  3a 5a -> 13a 14a                                          
    0.011290  3a 5a -> 9a 15a                                           
   -0.013155  3a 5a -> 7a 17a                                           
   -0.023745  3a 5a -> 15a 17a                                          
   -0.010898  3a 5a -> 22a 23a                                          
   -0.015168  3a 4a -> 10a 11a                                          
    0.011522  3a 4a -> 8a 15a                                           
   -0.012978  3a 4a -> 7a 16a                                           
   -0.023533  3a 4a -> 15a 16a                                          
   -0.012616  3a 4a -> 19a 20a                                          
    0.013165  2a 3a -> 15a 18a                                          
    0.013480  2a 4a -> 16a 18a                                          
    0.013618  2a 5a -> 17a 18a                                          

 ************************ 2025-02-15 10:17:17 *************************
 Executing goldstone...

 Generation of CC equations in terms of H and T...
 Generation of antisymmetrized Goldstone diagrams...
 Number of diagrams in T^1 equations:    15
 Number of diagrams in T^2 equations:    38
 Number of diagrams in T^3 equations:    54
 Number of diagrams in T^4 equations:    77
 Number of diagrams in T^5 equations:     8
 Translation of diagrams to factorized equations...
 Optimizing intermediate calculation...
 Number of floating-point operations per iteration step:   1.5324E+10
 Probable CPU time per iteration step (hours):            0.15
 Required memory (Mbytes):            73.2
 Number of intermediates:                                 121
 Number of intermediates to be stored:                     51
 Length of intermediate file (Mbytes):            32.5

 ************************ 2025-02-15 10:17:20 *************************
 Executing xmrcc...

 **********************************************************************
 CC(4)(5) calculation 
 
 
 Allocation of        40960.0 Mbytes of memory...
 Number of spinorbitals:                    54
 Number of alpha electrons:                        5
 Number of beta electrons:                         3
 Spin multiplicity:                     2
 z-component of spin:  1.0
 Spatial symmetry:                      2
 Convergence criterion:  1.0E-05
 Construction of occupation graphs...
 Number of                     0 -fold excitations:                      1
 Number of                     1 -fold excitations:                     40
 Number of                     2 -fold excitations:                   1589
 Number of                     3 -fold excitations:                  34912
 Number of                     4 -fold excitations:                 410424
 Total number of configurations:                 446966
 Calculation of coupling coefficients...
 Length of intermediate file (Mbytes):            21.6
 
 ======================================================================
 
 Spin case  1   Alpha:  2   Beta:  3
 Number of excitations:                 584199
 Spin case  2   Alpha:  3   Beta:  2
 Number of excitations:                1593740
 Spin case  3   Alpha:  4   Beta:  1
 Number of excitations:                 331472
 Spin case  4   Alpha:  5   Beta:  0
 Number of excitations:                   3375
 Number of                     5 -fold excitations:                2512786
 
 Memory requirements /Mbyte/: 
               Minimal        Optimal
 Real*8:         58.9404        58.9404
 Integer:         7.6267
 Total:          66.5672        66.5672
 

 ************************ 2025-02-15 10:17:22 *************************
 Executing mrcc...

 **********************************************************************
 CCSDTQ(P) calculation                                                  
 
 
 OpenMP parallel version is running.
 Number of CPU cores:   4
 Allocation of           58.9 Mbytes of memory...
 Number of spinorbitals:  54
 Number of alpha electrons:  5
 Number of beta  electrons:  3
 Spin multiplicity: 3
 z-component of spin:  1.0
 Spatial symmetry: 2
 Convergence criterion:  1.0E-05
 Construction of occupation graphs...
 Number of 0-fold excitations: 1
 Number of 1-fold excitations: 40
 Number of 2-fold excitations: 1589
 Number of 3-fold excitations: 34912
 Number of 4-fold excitations: 410424
 Total number of determinants: 446966
 Calculation of coupling coefficients...
 Initial cluster amplitudes are read from unit 16.
 Length of intermediate file (Mbytes):            21.6
 Reading integral list from unit 55...
 Sorting integrals...
 Sorting integrals...
 Sorting integrals...
 Sorting integrals...
 Energy of reference determinant [au]:     -74.658656685204
 Calculation of MP denominators...
 
 Starting CC iteration...
 ======================================================================
 Norm of residual vector:     0.02542914
 CPU time [min]:     0.395                   Wall time [min]:     0.132
 
 Iteration  1  CC energy:   -74.96628839  Energy decrease:   0.00000001
 ======================================================================
 Norm of residual vector:     0.00492259
 CPU time [min]:     0.741                   Wall time [min]:     0.221
 
 Iteration  2  CC energy:   -74.96631794  Energy decrease:   0.00002955
 ======================================================================
 Norm of residual vector:     0.00168673
 CPU time [min]:     1.081                   Wall time [min]:     0.306
 
 Iteration  3  CC energy:   -74.96640892  Energy decrease:   0.00009098
 ======================================================================
 Norm of residual vector:     0.00059537
 CPU time [min]:     1.423                   Wall time [min]:     0.393
 
 Iteration  4  CC energy:   -74.96642976  Energy decrease:   0.00002084
 ======================================================================
 Norm of residual vector:     0.00018593
 CPU time [min]:     1.765                   Wall time [min]:     0.480
 
 Iteration  5  CC energy:   -74.96643838  Energy decrease:   0.00000862
 ======================================================================
 Norm of residual vector:     0.00006630
 CPU time [min]:     2.105                   Wall time [min]:     0.565
 
 Iteration  6  CC energy:   -74.96643974  Energy decrease:   0.00000136
 ======================================================================
 Norm of residual vector:     0.00002583
 CPU time [min]:     2.449                   Wall time [min]:     0.652
 
 Iteration  7  CC energy:   -74.96644104  Energy decrease:   0.00000129
 ======================================================================
 Norm of residual vector:     0.00001253
 CPU time [min]:     2.797                   Wall time [min]:     0.740
 
 Iteration  8  CC energy:   -74.96644106  Energy decrease:   0.00000002
 ======================================================================
 Norm of residual vector:     0.00000597
 CPU time [min]:     3.151                   Wall time [min]:     0.829
 
 Iteration  9  CC energy:   -74.96644122  Energy decrease:   0.00000016
 ======================================================================
 
 Iteration has converged in  9 steps.
 
 Final results:
 Total CCSDTQ energy [au]:                    -74.966441220417
 
 Perturbative corrections are calculated...
 ======================================================================
 Spin case  1   Alpha:  2   Beta:  3
 Number of excitations:        584199
 CPU time [min]:     4.854                   Wall time [min]:     1.283
 ======================================================================
 Spin case  2   Alpha:  3   Beta:  2
 Number of excitations:        1593740
 CPU time [min]:     7.258                   Wall time [min]:     1.936
 ======================================================================
 Spin case  3   Alpha:  4   Beta:  1
 Number of excitations:        331472
 CPU time [min]:     8.039                   Wall time [min]:     2.138
 ======================================================================
 Spin case  4   Alpha:  5   Beta:  0
 Number of excitations:        3375
 CPU time [min]:     8.072                   Wall time [min]:     2.146
 ======================================================================
 Number of 5-fold excitations: 2512786
 
 T_3^+ contribution [au]:                      -0.000001135388
 T_1^+ * T_2^+ contribution [au]:              -0.000002429936
 T_1^+ * <ab||ij> contribution [au]:           -0.000001715518
 T_2^+ * f_ai contribution [au]:               -0.000000763850
 T_2^+ contribution [au]:                      -0.000001238367
 
 CPU time [min]:     8.086                   Wall time [min]:     2.150
 
 Total CCSDTQ[P] energy [au]:                 -74.966446024107
 Total CCSDTQ(P)/A energy [au]:               -74.966446024107
 Total CCSDTQ(P)/B energy [au]:               -74.966446073540
 
 Dominant cluster amplitudes
 Printing threshold:  1.00E-02
 
    1.000000  Reference determinant                                     
   -0.034700  2b -> 10b                                                 
    0.014310  2b -> 14b                                                 
   -0.010604  2b -> 18b                                                 
   -0.020456  2b -> 19b                                                 
   -0.577997  3b -> 7b                                                  
   -0.140937  3b -> 15b                                                 
    0.020792  2a -> 14a                                                 
    0.019787  2a -> 23a                                                 
    0.026932  3a -> 7a                                                  
   -0.011076  4a -> 16a                                                 
   -0.024728  5a -> 9a                                                  
   -0.028104  5a -> 17a                                                 
   -0.014310  2b 3b -> 4b 11b                                           
    0.011651  2b 3b -> 8b 11b                                           
   -0.018559  2b 3b -> 5b 13b                                           
   -0.010138  2b 3b -> 6b 15b                                           
    0.015255  2b 3b -> 15b 18b                                          
   -0.011051  2b 3b -> 5b 22b                                           
   -0.010105  2a 2b -> 18a 6b                                           
   -0.018698  2a 2b -> 18a 18b                                          
   -0.010197  3a 3b -> 6a 6b                                            
   -0.017744  3a 3b -> 10a 14b                                          
   -0.013647  3a 3b -> 18a 18b                                          
   -0.010406  3a 3b -> 10a 23b                                          
   -0.013856  3a 3b -> 19a 23b                                          
   -0.017756  3a 3b -> 13a 13b                                          
   -0.010140  3a 3b -> 13a 22b                                          
   -0.013805  3a 3b -> 22a 22b                                          
   -0.017744  3a 3b -> 11a 11b                                          
   -0.010406  3a 3b -> 11a 20b                                          
   -0.013856  3a 3b -> 20a 20b                                          
   -0.027472  3a 3b -> 7a 7b                                            
   -0.031410  3a 3b -> 15a 7b                                           
   -0.031149  3a 3b -> 7a 15b                                           
   -0.053852  3a 3b -> 15a 15b                                          
   -0.010998  2a 2b -> 16a 16b                                          
    0.012292  2a 2b -> 9a 5b                                            
    0.012347  2a 2b -> 17a 5b                                           
    0.011168  3a 3b -> 9a 5b                                            
   -0.012779  5a 3b -> 14a 13b                                          
   -0.012745  5a 3b -> 12a 11b                                          
   -0.012745  5a 3b -> 13a 14b                                          
    0.024204  5a 3b -> 7a 5b                                            
    0.013125  5a 3b -> 15a 5b                                           
   -0.018483  5a 3b -> 9a 7b                                            
   -0.024414  5a 3b -> 17a 7b                                           
   -0.020383  5a 3b -> 9a 15b                                           
   -0.039548  5a 3b -> 17a 15b                                          
   -0.012740  4a 3b -> 12a 13b                                          
    0.017357  4a 3b -> 7a 4b                                            
   -0.015999  4a 3b -> 7a 8b                                            
   -0.010171  4a 3b -> 15a 16b                                          
   -0.018665  4a 3b -> 8a 7b                                            
   -0.024078  4a 3b -> 16a 7b                                           
   -0.020786  4a 3b -> 8a 15b                                           
   -0.039217  4a 3b -> 16a 15b                                          
   -0.013995  2a 3b -> 6a 7b                                            
   -0.015405  2a 3b -> 18a 7b                                           
   -0.019288  2a 3b -> 6a 15b                                           
   -0.030332  2a 3b -> 18a 15b                                          
   -0.012426  3a 2b -> 18a 15b                                          
   -0.012344  2a 3b -> 13a 5b                                           
   -0.013395  2a 3b -> 22a 5b                                           
   -0.027139  3a 2b -> 13a 5b                                           
   -0.022285  3a 2b -> 22a 5b                                           
   -0.021097  3a 2b -> 11a 4b                                           
   -0.015879  3a 2b -> 20a 4b                                           
    0.017156  3a 2b -> 11a 8b                                           
    0.014864  3a 2b -> 20a 8b                                           
   -0.012996  2a 3b -> 15a 18b                                          
   -0.014942  3a 2b -> 15a 6b                                           
   -0.010620  3a 2b -> 7a 18b                                           
   -0.023589  3a 2b -> 15a 18b                                          
    0.010118  4a 2b -> 6a 4b                                            
    0.021097  4a 2b -> 10a 4b                                           
    0.012812  4a 2b -> 14a 4b                                           
    0.015879  4a 2b -> 19a 4b                                           
   -0.011034  4a 2b -> 6a 8b                                            
   -0.017253  4a 2b -> 10a 8b                                           
   -0.010397  4a 2b -> 14a 8b                                           
   -0.014831  4a 2b -> 19a 8b                                           
   -0.012588  4a 2b -> 18a 16b                                          
   -0.028075  4a 2b -> 12a 5b                                           
   -0.023019  4a 2b -> 21a 5b                                           
   -0.014878  4a 2b -> 16a 6b                                           
   -0.023544  4a 2b -> 16a 18b                                          
    0.015702  5a 2b -> 6a 5b                                            
   -0.032085  5a 2b -> 14a 5b                                           
    0.010122  5a 2b -> 18a 5b                                           
   -0.026409  5a 2b -> 23a 5b                                           
   -0.010895  5a 2b -> 18a 17b                                          
   -0.021739  5a 2b -> 12a 4b                                           
   -0.016553  5a 2b -> 21a 4b                                           
    0.017738  5a 2b -> 12a 8b                                           
    0.015431  5a 2b -> 21a 8b                                           
   -0.015051  5a 2b -> 17a 6b                                           
   -0.023760  5a 2b -> 17a 18b                                          
   -0.011957  4a 5a -> 12a 14a                                          
    0.011702  4a 5a -> 9a 16a                                           
   -0.012098  4a 5a -> 8a 17a                                           
   -0.024501  4a 5a -> 16a 17a                                          
   -0.010899  4a 5a -> 21a 23a                                          
   -0.012795  3a 5a -> 13a 14a                                          
    0.011312  3a 5a -> 9a 15a                                           
   -0.013185  3a 5a -> 7a 17a                                           
   -0.023788  3a 5a -> 15a 17a                                          
   -0.010903  3a 5a -> 22a 23a                                          
   -0.015185  3a 4a -> 10a 11a                                          
    0.011546  3a 4a -> 8a 15a                                           
   -0.013010  3a 4a -> 7a 16a                                           
   -0.023574  3a 4a -> 15a 16a                                          
   -0.012621  3a 4a -> 19a 20a                                          
    0.013185  2a 3a -> 15a 18a                                          
    0.013499  2a 4a -> 16a 18a                                          
    0.013638  2a 5a -> 17a 18a                                          

 ************************ 2025-02-15 10:19:31 *************************
 Executing goldstone...

 Generation of CC equations in terms of H and T...
 Generation of antisymmetrized Goldstone diagrams...
 Number of diagrams in T^1 equations:    15
 Number of diagrams in T^2 equations:    38
 Number of diagrams in T^3 equations:    54
 Number of diagrams in T^4 equations:    81
 Number of diagrams in T^5 equations:   102
 Number of diagrams in T^6 equations:    14
 Translation of diagrams to factorized equations...
 Optimizing intermediate calculation...
 Number of floating-point operations per iteration step:   2.0659E+11
 Probable CPU time per iteration step (hours):            2.07
 Required memory (Mbytes):           325.9
 Number of intermediates:                                 166
 Number of intermediates to be stored:                     69
 Length of intermediate file (Mbytes):           356.5

 ************************ 2025-02-15 10:19:32 *************************
 Executing xmrcc...

 **********************************************************************
 CC(5)(6) calculation 
 
 
 Allocation of        40960.0 Mbytes of memory...
 Number of spinorbitals:                    54
 Number of alpha electrons:                        5
 Number of beta electrons:                         3
 Spin multiplicity:                     2
 z-component of spin:  1.0
 Spatial symmetry:                      2
 Convergence criterion:  1.0E-05
 Construction of occupation graphs...
 Number of                     0 -fold excitations:                      1
 Number of                     1 -fold excitations:                     40
 Number of                     2 -fold excitations:                   1589
 Number of                     3 -fold excitations:                  34912
 Number of                     4 -fold excitations:                 410424
 Number of                     5 -fold excitations:                2512786
 Total number of configurations:                2959752
 Calculation of coupling coefficients...
 Length of intermediate file (Mbytes):           207.2
 
 ======================================================================
 
 Spin case  1   Alpha:  3   Beta:  3
 Number of excitations:                3896244
 Spin case  2   Alpha:  4   Beta:  2
 Number of excitations:                3788650
 Spin case  3   Alpha:  5   Beta:  1
 Number of excitations:                 238242
 Number of                     6 -fold excitations:                7923136
 
 Memory requirements /Mbyte/: 
               Minimal        Optimal
 Real*8:        284.5126       284.5126
 Integer:        24.9615
 Total:         309.4741       309.4741
 

 ************************ 2025-02-15 10:19:35 *************************
 Executing mrcc...

 **********************************************************************
 CC(5)(6) calculation                                                   
 
 
 OpenMP parallel version is running.
 Number of CPU cores:   4
 Allocation of          284.5 Mbytes of memory...
 Number of spinorbitals:  54
 Number of alpha electrons:  5
 Number of beta  electrons:  3
 Spin multiplicity: 3
 z-component of spin:  1.0
 Spatial symmetry: 2
 Convergence criterion:  1.0E-05
 Construction of occupation graphs...
 Number of 0-fold excitations: 1
 Number of 1-fold excitations: 40
 Number of 2-fold excitations: 1589
 Number of 3-fold excitations: 34912
 Number of 4-fold excitations: 410424
 Number of 5-fold excitations: 2512786
 Total number of determinants: 2959752
 Calculation of coupling coefficients...
 Initial cluster amplitudes are read from unit 16.
 Length of intermediate file (Mbytes):           207.2
 Reading integral list from unit 55...
 Sorting integrals...
 Sorting integrals...
 Sorting integrals...
 Sorting integrals...
 Energy of reference determinant [au]:     -74.658656685204
 Calculation of MP denominators...
 
 Starting CC iteration...
 ======================================================================
 Norm of residual vector:     0.00483465
 CPU time [min]:     2.780                   Wall time [min]:     0.740
 
 Iteration  1  CC energy:   -74.96644118  Energy decrease:   0.00000004
 ======================================================================
 Norm of residual vector:     0.00097510
 CPU time [min]:     5.533                   Wall time [min]:     1.459
 
 Iteration  2  CC energy:   -74.96644118  Energy decrease:   4.1526E-09
 ======================================================================
 Norm of residual vector:     0.00033738
 CPU time [min]:     8.292                   Wall time [min]:     2.157
 
 Iteration  3  CC energy:   -74.96644173  Energy decrease:   0.00000055
 ======================================================================
 Norm of residual vector:     0.00009235
 CPU time [min]:    11.072                   Wall time [min]:     2.867
 
 Iteration  4  CC energy:   -74.96644491  Energy decrease:   0.00000318
 ======================================================================
 Norm of residual vector:     0.00002937
 CPU time [min]:    13.911                   Wall time [min]:     3.607
 
 Iteration  5  CC energy:   -74.96644563  Energy decrease:   0.00000072
 ======================================================================
 Norm of residual vector:     0.00000914
 CPU time [min]:    16.722                   Wall time [min]:     4.318
 
 Iteration  6  CC energy:   -74.96644587  Energy decrease:   0.00000024
 ======================================================================
 
 Iteration has converged in  6 steps.
 
 Final results:
 Total CCSDTQP energy [au]:                   -74.966445874460
 
 Perturbative corrections are calculated...
 ======================================================================
 Spin case  1   Alpha:  3   Beta:  3
 Number of excitations:        3896244
 CPU time [min]:    49.142                   Wall time [min]:    12.985
 ======================================================================
 Spin case  2   Alpha:  4   Beta:  2
 Number of excitations:        3788650
 CPU time [min]:    73.338                   Wall time [min]:    19.562
 ======================================================================
 Spin case  3   Alpha:  5   Beta:  1
 Number of excitations:        238242
 CPU time [min]:    78.591                   Wall time [min]:    21.042
 ======================================================================
 Number of 6-fold excitations: 7923136
 
 T_2^+ contribution [au]:                       0.000000006100
 T_2^+ contribution [au]:                      -0.000000007702
 T_3^+ contribution [au]:                      -0.000000008732
 T_1^+ * T_2^+ contribution [au]:              -0.000000022560
 T_1^+ * <ab||ij> contribution [au]:           -0.000000016751
 T_2^+ * f_ai contribution [au]:               -0.000000006806
 
 CPU time [min]:    78.906                   Wall time [min]:    21.121
 
 Total CC(5)[6] energy [au]:                  -74.966445868360
 Total CC(5)(6)/A energy [au]:                -74.966445907354
 Total CC(5)(6)/B energy [au]:                -74.966445908352
 
 Dominant cluster amplitudes
 Printing threshold:  1.00E-02
 
    1.000000  Reference determinant                                     
   -0.034700  2b -> 10b                                                 
    0.014310  2b -> 14b                                                 
   -0.010605  2b -> 18b                                                 
   -0.020456  2b -> 19b                                                 
   -0.578005  3b -> 7b                                                  
   -0.140940  3b -> 15b                                                 
    0.020792  2a -> 14a                                                 
    0.019787  2a -> 23a                                                 
    0.026925  3a -> 7a                                                  
   -0.011078  4a -> 16a                                                 
   -0.024734  5a -> 9a                                                  
   -0.028106  5a -> 17a                                                 
   -0.014310  2b 3b -> 4b 11b                                           
    0.011651  2b 3b -> 8b 11b                                           
   -0.018559  2b 3b -> 5b 13b                                           
   -0.010139  2b 3b -> 6b 15b                                           
    0.015255  2b 3b -> 15b 18b                                          
   -0.011051  2b 3b -> 5b 22b                                           
   -0.010106  2a 2b -> 18a 6b                                           
   -0.018698  2a 2b -> 18a 18b                                          
   -0.010195  3a 3b -> 6a 6b                                            
   -0.017744  3a 3b -> 10a 14b                                          
   -0.013648  3a 3b -> 18a 18b                                          
   -0.010406  3a 3b -> 10a 23b                                          
   -0.013856  3a 3b -> 19a 23b                                          
   -0.017756  3a 3b -> 13a 13b                                          
   -0.010140  3a 3b -> 13a 22b                                          
   -0.013805  3a 3b -> 22a 22b                                          
   -0.017744  3a 3b -> 11a 11b                                          
   -0.010406  3a 3b -> 11a 20b                                          
   -0.013856  3a 3b -> 20a 20b                                          
   -0.027470  3a 3b -> 7a 7b                                            
   -0.031411  3a 3b -> 15a 7b                                           
   -0.031149  3a 3b -> 7a 15b                                           
   -0.053853  3a 3b -> 15a 15b                                          
   -0.010999  2a 2b -> 16a 16b                                          
    0.012291  2a 2b -> 9a 5b                                            
    0.012347  2a 2b -> 17a 5b                                           
    0.011167  3a 3b -> 9a 5b                                            
   -0.012779  5a 3b -> 14a 13b                                          
   -0.012744  5a 3b -> 12a 11b                                          
   -0.012744  5a 3b -> 13a 14b                                          
    0.024205  5a 3b -> 7a 5b                                            
    0.013126  5a 3b -> 15a 5b                                           
   -0.018481  5a 3b -> 9a 7b                                            
   -0.024415  5a 3b -> 17a 7b                                           
   -0.020383  5a 3b -> 9a 15b                                           
   -0.039549  5a 3b -> 17a 15b                                          
   -0.012739  4a 3b -> 12a 13b                                          
    0.017358  4a 3b -> 7a 4b                                            
   -0.016000  4a 3b -> 7a 8b                                            
   -0.010171  4a 3b -> 15a 16b                                          
   -0.018663  4a 3b -> 8a 7b                                            
   -0.024079  4a 3b -> 16a 7b                                           
   -0.020786  4a 3b -> 8a 15b                                           
   -0.039219  4a 3b -> 16a 15b                                          
   -0.013993  2a 3b -> 6a 7b                                            
   -0.015405  2a 3b -> 18a 7b                                           
   -0.019289  2a 3b -> 6a 15b                                           
   -0.030332  2a 3b -> 18a 15b                                          
   -0.012426  3a 2b -> 18a 15b                                          
   -0.012345  2a 3b -> 13a 5b                                           
   -0.013395  2a 3b -> 22a 5b                                           
   -0.027139  3a 2b -> 13a 5b                                           
   -0.022285  3a 2b -> 22a 5b                                           
   -0.021097  3a 2b -> 11a 4b                                           
   -0.015879  3a 2b -> 20a 4b                                           
    0.017156  3a 2b -> 11a 8b                                           
    0.014864  3a 2b -> 20a 8b                                           
   -0.012996  2a 3b -> 15a 18b                                          
   -0.014943  3a 2b -> 15a 6b                                           
   -0.010621  3a 2b -> 7a 18b                                           
   -0.023590  3a 2b -> 15a 18b                                          
    0.010118  4a 2b -> 6a 4b                                            
    0.021097  4a 2b -> 10a 4b                                           
    0.012812  4a 2b -> 14a 4b                                           
    0.015879  4a 2b -> 19a 4b                                           
   -0.011034  4a 2b -> 6a 8b                                            
   -0.017254  4a 2b -> 10a 8b                                           
   -0.010397  4a 2b -> 14a 8b                                           
   -0.014831  4a 2b -> 19a 8b                                           
   -0.012588  4a 2b -> 18a 16b                                          
   -0.028075  4a 2b -> 12a 5b                                           
   -0.023019  4a 2b -> 21a 5b                                           
   -0.014879  4a 2b -> 16a 6b                                           
   -0.023545  4a 2b -> 16a 18b                                          
    0.015703  5a 2b -> 6a 5b                                            
   -0.032085  5a 2b -> 14a 5b                                           
    0.010123  5a 2b -> 18a 5b                                           
   -0.026409  5a 2b -> 23a 5b                                           
   -0.010895  5a 2b -> 18a 17b                                          
   -0.021739  5a 2b -> 12a 4b                                           
   -0.016553  5a 2b -> 21a 4b                                           
    0.017738  5a 2b -> 12a 8b                                           
    0.015431  5a 2b -> 21a 8b                                           
   -0.015052  5a 2b -> 17a 6b                                           
   -0.023761  5a 2b -> 17a 18b                                          
   -0.011957  4a 5a -> 12a 14a                                          
    0.011703  4a 5a -> 9a 16a                                           
   -0.012099  4a 5a -> 8a 17a                                           
   -0.024503  4a 5a -> 16a 17a                                          
   -0.010899  4a 5a -> 21a 23a                                          
   -0.012794  3a 5a -> 13a 14a                                          
    0.011313  3a 5a -> 9a 15a                                           
   -0.013186  3a 5a -> 7a 17a                                           
   -0.023790  3a 5a -> 15a 17a                                          
   -0.010903  3a 5a -> 22a 23a                                          
   -0.015185  3a 4a -> 10a 11a                                          
    0.011547  3a 4a -> 8a 15a                                           
   -0.013012  3a 4a -> 7a 16a                                           
   -0.023576  3a 4a -> 15a 16a                                          
   -0.012621  3a 4a -> 19a 20a                                          
    0.013185  2a 3a -> 15a 18a                                          
    0.013500  2a 4a -> 16a 18a                                          
    0.013639  2a 5a -> 17a 18a                                          

 ************************ 2025-02-15 10:40:42 *************************
 Executing goldstone...

 Generation of CC equations in terms of H and T...
 Generation of antisymmetrized Goldstone diagrams...
 Number of diagrams in T^1 equations:    15
 Number of diagrams in T^2 equations:    38
 Number of diagrams in T^3 equations:    54
 Number of diagrams in T^4 equations:    81
 Number of diagrams in T^5 equations:   106
 Number of diagrams in T^6 equations:   138
 Number of diagrams in T^7 equations:    20
 Translation of diagrams to factorized equations...
 Optimizing intermediate calculation...
 Number of floating-point operations per iteration step:   2.5754E+12
 Probable CPU time per iteration step (hours):           25.75
 Required memory (Mbytes):           410.1
 Number of intermediates:                                 219
 Number of intermediates to be stored:                     91
 Length of intermediate file (Mbytes):          1317.8

 ************************ 2025-02-15 10:40:45 *************************
 Executing xmrcc...

 **********************************************************************
 CC(6)(7) calculation 
 
 
 Allocation of        40960.0 Mbytes of memory...
 Number of spinorbitals:                    54
 Number of alpha electrons:                        5
 Number of beta electrons:                         3
 Spin multiplicity:                     2
 z-component of spin:  1.0
 Spatial symmetry:                      2
 Convergence criterion:  1.0E-05
 Construction of occupation graphs...
 Number of                     0 -fold excitations:                      1
 Number of                     1 -fold excitations:                     40
 Number of                     2 -fold excitations:                   1589
 Number of                     3 -fold excitations:                  34912
 Number of                     4 -fold excitations:                 410424
 Number of                     5 -fold excitations:                2512786
 Number of                     6 -fold excitations:                7923136
 Total number of configurations:               10882888
 Calculation of coupling coefficients...
 Length of intermediate file (Mbytes):           728.4
 
 ======================================================================
 
 Spin case  1   Alpha:  4   Beta:  3
 Number of excitations:                9251022
 Spin case  2   Alpha:  5   Beta:  2
 Number of excitations:                2726976
 Number of                     7 -fold excitations:               11977998
 
 Memory requirements /Mbyte/: 
               Minimal        Optimal
 Real*8:        655.5065       655.5065
 Integer:        25.3297
 Total:         680.8362       680.8362
 

 ************************ 2025-02-15 10:40:48 *************************
 Executing mrcc...

 **********************************************************************
 CC(6)(7) calculation                                                   
 
 
 OpenMP parallel version is running.
 Number of CPU cores:   4
 Allocation of          655.5 Mbytes of memory...
 Number of spinorbitals:  54
 Number of alpha electrons:  5
 Number of beta  electrons:  3
 Spin multiplicity: 3
 z-component of spin:  1.0
 Spatial symmetry: 2
 Convergence criterion:  1.0E-05
 Construction of occupation graphs...
 Number of 0-fold excitations: 1
 Number of 1-fold excitations: 40
 Number of 2-fold excitations: 1589
 Number of 3-fold excitations: 34912
 Number of 4-fold excitations: 410424
 Number of 5-fold excitations: 2512786
 Number of 6-fold excitations: 7923136
 Total number of determinants: 10882888
 Calculation of coupling coefficients...
 Initial cluster amplitudes are read from unit 16.
 Length of intermediate file (Mbytes):           728.4
 Reading integral list from unit 55...
 Sorting integrals...
 Sorting integrals...
 Sorting integrals...
 Sorting integrals...
 Energy of reference determinant [au]:     -74.658656685204
 Calculation of MP denominators...
 
 Starting CC iteration...
 ======================================================================
 Norm of residual vector:     0.00074372
 CPU time [min]:    20.527                   Wall time [min]:     6.140
 
 Iteration  1  CC energy:   -74.96644585  Energy decrease:   0.00000002
 ======================================================================
 Norm of residual vector:     0.00013969
 CPU time [min]:    41.003                   Wall time [min]:    12.191
 
 Iteration  2  CC energy:   -74.96644587  Energy decrease:   0.00000002
 ======================================================================
 Norm of residual vector:     0.00004774
 CPU time [min]:    61.648                   Wall time [min]:    18.284
 
 Iteration  3  CC energy:   -74.96644586  Energy decrease:   0.00000002
 ======================================================================
 Norm of residual vector:     0.00001264
 CPU time [min]:    82.977                   Wall time [min]:    24.365
 
 Iteration  4  CC energy:   -74.96644585  Energy decrease:   0.00000001
 ======================================================================
 Norm of residual vector:     0.00000311
 CPU time [min]:   104.521                   Wall time [min]:    30.760
 
 Iteration  5  CC energy:   -74.96644591  Energy decrease:   0.00000006
 ======================================================================
 
 Iteration has converged in  5 steps.
 
 Final results:
 Total CC(6) energy [au]:                     -74.966445908946
 
 Perturbative corrections are calculated...
 ======================================================================
 Spin case  1   Alpha:  4   Beta:  3
 Number of excitations:        9251022
 CPU time [min]:   410.476                   Wall time [min]:   120.189
 ======================================================================
 Spin case  2   Alpha:  5   Beta:  2
 Number of excitations:        2726976
 CPU time [min]:   549.126                   Wall time [min]:   157.685
 ======================================================================
 Number of 7-fold excitations: 11977998
 
 T_3^+ contribution [au]:                      -0.000000000021
 T_1^+ * T_2^+ contribution [au]:              -0.000000000020
 T_1^+ * <ab||ij> contribution [au]:           -0.000000000015
 T_2^+ * f_ai contribution [au]:               -0.000000000006
 T_2^+ contribution [au]:                       0.000000000024
 T_2^+ contribution [au]:                      -0.000000000020
 
 CPU time [min]:   549.720                   Wall time [min]:   157.922
 
 Total CC(6)[7] energy [au]:                  -74.966445908982
 Total CC(6)(7)/A energy [au]:                -74.966445908982
 Total CC(6)(7)/B energy [au]:                -74.966445908984
 
 Dominant cluster amplitudes
 Printing threshold:  1.00E-02
 
    1.000000  Reference determinant                                     
   -0.034700  2b -> 10b                                                 
    0.014310  2b -> 14b                                                 
   -0.010605  2b -> 18b                                                 
   -0.020456  2b -> 19b                                                 
   -0.578006  3b -> 7b                                                  
   -0.140940  3b -> 15b                                                 
    0.020792  2a -> 14a                                                 
    0.019787  2a -> 23a                                                 
    0.026925  3a -> 7a                                                  
[...]
   -0.010406  3a 3b -> 10a 23b                                          
   -0.013856  3a 3b -> 19a 23b                                          
   -0.017756  3a 3b -> 13a 13b                                          
   -0.010140  3a 3b -> 13a 22b                                          
   -0.013805  3a 3b -> 22a 22b                                          
   -0.017744  3a 3b -> 11a 11b                                          
   -0.010406  3a 3b -> 11a 20b                                          
   -0.013856  3a 3b -> 20a 20b                                          
   -0.027469  3a 3b -> 7a 7b                                            
   -0.031411  3a 3b -> 15a 7b                                           
   -0.031149  3a 3b -> 7a 15b                                           
   -0.053853  3a 3b -> 15a 15b                                          
   -0.010999  2a 2b -> 16a 16b                                          
    0.012291  2a 2b -> 9a 5b                                            
    0.012347  2a 2b -> 17a 5b                                           
    0.011167  3a 3b -> 9a 5b                                            
   -0.012779  5a 3b -> 14a 13b                                          
   -0.012744  5a 3b -> 12a 11b                                          
   -0.012744  5a 3b -> 13a 14b                                          
    0.024206  5a 3b -> 7a 5b                                            
    0.013126  5a 3b -> 15a 5b                                           
   -0.018481  5a 3b -> 9a 7b                                            
   -0.024415  5a 3b -> 17a 7b                                           
   -0.020383  5a 3b -> 9a 15b                                           
   -0.039549  5a 3b -> 17a 15b                                          
   -0.012739  4a 3b -> 12a 13b                                          
    0.017359  4a 3b -> 7a 4b                                            
   -0.016001  4a 3b -> 7a 8b                                            
   -0.010171  4a 3b -> 15a 16b                                          
   -0.018663  4a 3b -> 8a 7b                                            
   -0.024079  4a 3b -> 16a 7b                                           
   -0.020786  4a 3b -> 8a 15b                                           
   -0.039219  4a 3b -> 16a 15b                                          
   -0.013993  2a 3b -> 6a 7b                                            
   -0.015405  2a 3b -> 18a 7b                                           
   -0.019289  2a 3b -> 6a 15b                                           
   -0.030332  2a 3b -> 18a 15b                                          
   -0.012426  3a 2b -> 18a 15b                                          
   -0.012345  2a 3b -> 13a 5b                                           
   -0.013395  2a 3b -> 22a 5b                                           
   -0.027139  3a 2b -> 13a 5b                                           
   -0.022285  3a 2b -> 22a 5b                                           
   -0.021097  3a 2b -> 11a 4b                                           
   -0.015879  3a 2b -> 20a 4b                                           
    0.017156  3a 2b -> 11a 8b                                           
    0.014864  3a 2b -> 20a 8b                                           
   -0.012996  2a 3b -> 15a 18b                                          
   -0.014943  3a 2b -> 15a 6b                                           
   -0.010621  3a 2b -> 7a 18b                                           
   -0.023590  3a 2b -> 15a 18b                                          
    0.010119  4a 2b -> 6a 4b                                            
    0.021097  4a 2b -> 10a 4b                                           
    0.012812  4a 2b -> 14a 4b                                           
    0.015879  4a 2b -> 19a 4b                                           
   -0.011035  4a 2b -> 6a 8b                                            
   -0.017254  4a 2b -> 10a 8b                                           
   -0.010397  4a 2b -> 14a 8b                                           
   -0.014831  4a 2b -> 19a 8b                                           
   -0.012588  4a 2b -> 18a 16b                                          
   -0.028075  4a 2b -> 12a 5b                                           
   -0.023019  4a 2b -> 21a 5b                                           
   -0.014879  4a 2b -> 16a 6b                                           
   -0.023545  4a 2b -> 16a 18b                                          
    0.015703  5a 2b -> 6a 5b                                            
   -0.032085  5a 2b -> 14a 5b                                           
    0.010123  5a 2b -> 18a 5b                                           
   -0.026409  5a 2b -> 23a 5b                                           
   -0.010895  5a 2b -> 18a 17b                                          
   -0.021739  5a 2b -> 12a 4b                                           
   -0.016553  5a 2b -> 21a 4b                                           
    0.017738  5a 2b -> 12a 8b                                           
    0.015431  5a 2b -> 21a 8b                                           
   -0.015052  5a 2b -> 17a 6b                                           
   -0.023761  5a 2b -> 17a 18b                                          
   -0.011957  4a 5a -> 12a 14a                                          
    0.011703  4a 5a -> 9a 16a                                           
   -0.012099  4a 5a -> 8a 17a                                           
   -0.024503  4a 5a -> 16a 17a                                          
   -0.010899  4a 5a -> 21a 23a                                          
   -0.012794  3a 5a -> 13a 14a                                          
    0.011313  3a 5a -> 9a 15a                                           
   -0.013186  3a 5a -> 7a 17a                                           
   -0.023790  3a 5a -> 15a 17a                                          
   -0.010903  3a 5a -> 22a 23a                                          
   -0.015185  3a 4a -> 10a 11a                                          
    0.011547  3a 4a -> 8a 15a                                           
   -0.013012  3a 4a -> 7a 16a                                           
   -0.023577  3a 4a -> 15a 16a                                          
   -0.012621  3a 4a -> 19a 20a                                          
    0.013185  2a 3a -> 15a 18a                                          
    0.013500  2a 4a -> 16a 18a                                          
    0.013639  2a 5a -> 17a 18a                                          

 ************************ 2025-02-15 21:09:55 *************************
 Executing goldstone...

 Generation of CC equations in terms of H and T...
 Generation of antisymmetrized Goldstone diagrams...
 Number of diagrams in T^1 equations:    15
 Number of diagrams in T^2 equations:    38
 Number of diagrams in T^3 equations:    54
 Number of diagrams in T^4 equations:    81
 Number of diagrams in T^5 equations:   106
 Number of diagrams in T^6 equations:   142
 Number of diagrams in T^7 equations:   175
 Number of diagrams in T^8 equations:   215
 Translation of diagrams to factorized equations...
 Optimizing intermediate calculation...
 Number of floating-point operations per iteration step:   2.4348E+13
 Probable CPU time per iteration step (hours):          243.48
 Required memory (Mbytes):         32997.5
 Number of intermediates:                                 300
 Number of intermediates to be stored:                    110
 Length of intermediate file (Mbytes):          6090.5

 ************************ 2025-02-15 21:10:00 *************************
 Executing xmrcc...

 **********************************************************************
 CC(                     8 ) calculation 
 
 
 Allocation of        40960.0 Mbytes of memory...
 Number of spinorbitals:                    54
 Number of alpha electrons:                        5
 Number of beta electrons:                         3
 Spin multiplicity:                     2
 z-component of spin:  1.0
 Spatial symmetry:                      2
 Convergence criterion:  1.0E-05
 Construction of occupation graphs...
 Number of                     0 -fold excitations:                      1
 Number of                     1 -fold excitations:                     40
 Number of                     2 -fold excitations:                   1589
 Number of                     3 -fold excitations:                  34912
 Number of                     4 -fold excitations:                 410424
 Number of                     5 -fold excitations:                2512786
 Number of                     6 -fold excitations:                7923136
 Number of                     7 -fold excitations:               11977998
 Number of                     8 -fold excitations:                6661314
 Total number of configurations:               29522200
 Calculation of coupling coefficients...
 Length of intermediate file (Mbytes):          3236.4
 
 ======================================================================
 
 Memory requirements /Mbyte/: 
               Minimal        Optimal
 Real*8:      20382.1218     20382.1218
 Integer:        25.6304
 Total:       20407.7521     20407.7521
 

 ************************ 2025-02-15 21:10:05 *************************
 Executing mrcc...

 **********************************************************************
 CC(8) calculation                                                      
 
 
 OpenMP parallel version is running.
 Number of CPU cores:   4
 Allocation of        20382.1 Mbytes of memory...
 Number of spinorbitals:  54
 Number of alpha electrons:  5
 Number of beta  electrons:  3
 Spin multiplicity: 3
 z-component of spin:  1.0
 Spatial symmetry: 2
 Convergence criterion:  1.0E-05
 Construction of occupation graphs...
 Number of 0-fold excitations: 1
 Number of 1-fold excitations: 40
 Number of 2-fold excitations: 1589
 Number of 3-fold excitations: 34912
 Number of 4-fold excitations: 410424
 Number of 5-fold excitations: 2512786
 Number of 6-fold excitations: 7923136
 Number of 7-fold excitations: 11977998
 Number of 8-fold excitations: 6661314
 Total number of determinants: 29522200
 Calculation of coupling coefficients...
 Initial cluster amplitudes are read from unit 16.
 Length of intermediate file (Mbytes):          3236.4
 Reading integral list from unit 55...
 Sorting integrals...
 Sorting integrals...
 Sorting integrals...
 Sorting integrals...
 Energy of reference determinant [au]:     -74.658656685204
 Calculation of MP denominators...
 
 Starting CC iteration...
 ======================================================================
 Norm of residual vector:     0.00000138
 CPU time [min]:   180.143                   Wall time [min]:    52.599
 
 Iteration  1  CC energy:   -74.96644592  Energy decrease:   4.6255E-10
 ======================================================================
 
 Iteration has converged in  1 steps.
 
 Final results:
 Total CC(8) energy [au]:                     -74.966445921531
 
 Dominant cluster amplitudes
 Printing threshold:  1.00E-02
 
    1.000000  Reference determinant                                     
   -0.034700  2b -> 10b                                                 
    0.014310  2b -> 14b                                                 
   -0.010605  2b -> 18b                                                 
   -0.020456  2b -> 19b                                                 
   -0.578006  3b -> 7b                                                  
   -0.140940  3b -> 15b                                                 
    0.020792  2a -> 14a                                                 
    0.019787  2a -> 23a                                                 
    0.026925  3a -> 7a                                                  
   -0.011078  4a -> 16a                                                 
   -0.024734  5a -> 9a                                                  
   -0.028106  5a -> 17a                                                 
   -0.014310  2b 3b -> 4b 11b                                           
    0.011651  2b 3b -> 8b 11b                                           
   -0.018559  2b 3b -> 5b 13b                                           
   -0.010139  2b 3b -> 6b 15b                                           
    0.015255  2b 3b -> 15b 18b                                          
   -0.011051  2b 3b -> 5b 22b                                           
   -0.010106  2a 2b -> 18a 6b                                           
   -0.018698  2a 2b -> 18a 18b                                          
   -0.010195  3a 3b -> 6a 6b                                            
   -0.017744  3a 3b -> 10a 14b                                          
   -0.013648  3a 3b -> 18a 18b                                          
   -0.010406  3a 3b -> 10a 23b                                          
   -0.013856  3a 3b -> 19a 23b                                          
   -0.017756  3a 3b -> 13a 13b                                          
   -0.010140  3a 3b -> 13a 22b                                          
   -0.013805  3a 3b -> 22a 22b                                          
   -0.017744  3a 3b -> 11a 11b                                          
   -0.010406  3a 3b -> 11a 20b                                          
   -0.013856  3a 3b -> 20a 20b                                          
   -0.027469  3a 3b -> 7a 7b                                            
   -0.031411  3a 3b -> 15a 7b                                           
   -0.031149  3a 3b -> 7a 15b                                           
   -0.053853  3a 3b -> 15a 15b                                          
   -0.010999  2a 2b -> 16a 16b                                          
    0.012291  2a 2b -> 9a 5b                                            
    0.012347  2a 2b -> 17a 5b                                           
    0.011167  3a 3b -> 9a 5b                                            
   -0.012779  5a 3b -> 14a 13b                                          
   -0.012744  5a 3b -> 12a 11b                                          
   -0.012744  5a 3b -> 13a 14b                                          
    0.024206  5a 3b -> 7a 5b                                            
    0.013126  5a 3b -> 15a 5b                                           
   -0.018481  5a 3b -> 9a 7b                                            
   -0.024415  5a 3b -> 17a 7b                                           
   -0.020383  5a 3b -> 9a 15b                                           
   -0.039549  5a 3b -> 17a 15b                                          
   -0.012739  4a 3b -> 12a 13b                                          
    0.017359  4a 3b -> 7a 4b                                            
   -0.016001  4a 3b -> 7a 8b                                            
   -0.010171  4a 3b -> 15a 16b                                          
   -0.018663  4a 3b -> 8a 7b                                            
   -0.024079  4a 3b -> 16a 7b                                           
   -0.020786  4a 3b -> 8a 15b                                           
   -0.039219  4a 3b -> 16a 15b                                          
   -0.013993  2a 3b -> 6a 7b                                            
   -0.015405  2a 3b -> 18a 7b                                           
   -0.019289  2a 3b -> 6a 15b                                           
   -0.030332  2a 3b -> 18a 15b                                          
   -0.012426  3a 2b -> 18a 15b                                          
   -0.012345  2a 3b -> 13a 5b                                           
   -0.013395  2a 3b -> 22a 5b                                           
   -0.027139  3a 2b -> 13a 5b                                           
   -0.022285  3a 2b -> 22a 5b                                           
   -0.021097  3a 2b -> 11a 4b                                           
   -0.015879  3a 2b -> 20a 4b                                           
    0.017156  3a 2b -> 11a 8b                                           
    0.014864  3a 2b -> 20a 8b                                           
   -0.012996  2a 3b -> 15a 18b                                          
   -0.014943  3a 2b -> 15a 6b                                           
   -0.010621  3a 2b -> 7a 18b                                           
   -0.023590  3a 2b -> 15a 18b                                          
    0.010119  4a 2b -> 6a 4b                                            
    0.021097  4a 2b -> 10a 4b                                           
    0.012812  4a 2b -> 14a 4b                                           
    0.015879  4a 2b -> 19a 4b                                           
   -0.011035  4a 2b -> 6a 8b                                            
   -0.017254  4a 2b -> 10a 8b                                           
   -0.010397  4a 2b -> 14a 8b                                           
   -0.014831  4a 2b -> 19a 8b                                           
   -0.012588  4a 2b -> 18a 16b                                          
   -0.028075  4a 2b -> 12a 5b                                           
   -0.023019  4a 2b -> 21a 5b                                           
   -0.014879  4a 2b -> 16a 6b                                           
   -0.023545  4a 2b -> 16a 18b                                          
    0.015703  5a 2b -> 6a 5b                                            
   -0.032085  5a 2b -> 14a 5b                                           
    0.010123  5a 2b -> 18a 5b                                           
   -0.026409  5a 2b -> 23a 5b                                           
   -0.010895  5a 2b -> 18a 17b                                          
   -0.021739  5a 2b -> 12a 4b                                           
   -0.016553  5a 2b -> 21a 4b                                           
    0.017738  5a 2b -> 12a 8b                                           
    0.015431  5a 2b -> 21a 8b                                           
   -0.015052  5a 2b -> 17a 6b                                           
   -0.023761  5a 2b -> 17a 18b                                          
   -0.011957  4a 5a -> 12a 14a                                          
    0.011703  4a 5a -> 9a 16a                                           
   -0.012099  4a 5a -> 8a 17a                                           
   -0.024503  4a 5a -> 16a 17a                                          
   -0.010899  4a 5a -> 21a 23a                                          
   -0.012794  3a 5a -> 13a 14a                                          
    0.011313  3a 5a -> 9a 15a                                           
   -0.013186  3a 5a -> 7a 17a                                           
   -0.023790  3a 5a -> 15a 17a                                          
   -0.010903  3a 5a -> 22a 23a                                          
   -0.015185  3a 4a -> 10a 11a                                          
    0.011547  3a 4a -> 8a 15a                                           
   -0.013012  3a 4a -> 7a 16a                                           
   -0.023577  3a 4a -> 15a 16a                                          
   -0.012621  3a 4a -> 19a 20a                                          
    0.013185  2a 3a -> 15a 18a                                          
    0.013500  2a 4a -> 16a 18a                                          
    0.013639  2a 5a -> 17a 18a                                          
 
 ************************ 2025-02-15 22:02:45 *************************
                      Normal termination of mrcc.
 **********************************************************************
Program finished with exit code 0 at: Sat Feb 15 22:02:46 EST 2025
