#INFO: **** input file is /lustre06/project/6058907/jaafar1/PySCF-MRCC/Oxygen/Cation/+1/AE/aCV4Z/CC-5-6/input.py ****
import pyscf
from pyscf import cc, lib, tools, scf, symm, ao2mo
from pyscf.gto.basis import parse_gaussian
from pyscf.cc.mrcc import MRCCInterface

name = 'out'
mol = pyscf.M(
    atom = '''
        O
    ''',
    unit = 'angstrom',
    basis = {
            'O' : parse_gaussian.load('O-aCVQZ-EMSL.gbs', 'O')
    },
    charge = 1,
    spin = 3,
    symmetry = True,
    verbose = 9,
    symmetry_subgroup = 'D2h',
    output = name +'.txt',
    max_memory = 8000,
)
mf = mol.UHF().set(conv_tol=1e-11,max_cycle=9999,ddm_tol=1e-13,direct_scf_tol=1e-13,chkfile=name+'.chk',init_guess='atom',irrep_nelec={'Ag': 4, 'B3u':1 , 'B2u':1 ,'B1u':1 })
mf.kernel()

#pyscf.tools.fcidump.from_chkfile_uhf('FCIdump',name+'.chk',tol=1e-18, float_format='% 0.20E',molpro_orbsym=False,orbsym=None)
pyscf.tools.fcidump.from_scf_uhf(mf,'fort.55',tol=1e-18, float_format='% 0.20E',molpro_orbsym=False)

#MRCCInterface.run_mrcc(mf, fort_file='fort.55', mrcc_input_file='MINP', tol=1e-18, float_format='% 0.20E', molpro_orbsym=False)
#INFO: ******************** input file end ********************


System: uname_result(system='Linux', node='nc31124.narval.calcul.quebec', release='4.18.0-553.34.1.el8_10.x86_64', version='#1 SMP Wed Jan 8 14:44:18 UTC 2025', machine='x86_64')  Threads 4
Python 3.12.4 (main, Jun  7 2024, 23:47:47) [GCC 13.3.0]
numpy 2.1.1  scipy 1.14.1  h5py 3.12.0
Date: Sat Feb  8 21:44:38 2025
PySCF version 2.7.0
PySCF path  /home/jaafar1/projects/def-nike-ab/jaafar1/VENV/MRCCInterface/lib/python3.12/site-packages/pyscf

[CONFIG] ARGPARSE = False
[CONFIG] DEBUG = False
[CONFIG] MAX_MEMORY = 4000
[CONFIG] TMPDIR = /tmp
[CONFIG] UNIT = angstrom
[CONFIG] VERBOSE = 3
[CONFIG] conf_file = None
[INPUT] verbose = 9
[INPUT] max_memory = 8000 
[INPUT] num. atoms = 1
[INPUT] num. electrons = 7
[INPUT] charge = 1
[INPUT] spin (= nelec alpha-beta = 2S) = 3
[INPUT] symmetry True subgroup D2h
[INPUT] Mole.unit = angstrom
[INPUT] Symbol           X                Y                Z      unit          X                Y                Z       unit  Magmom
[INPUT]  1 O      0.000000000000   0.000000000000   0.000000000000 AA    0.000000000000   0.000000000000   0.000000000000 Bohr   0.0
[INPUT] ---------------- BASIS SET ---------------- 
[INPUT] l, kappa, [nprim/nctr], expnt,             c_1 c_2 ...
[INPUT] O
[INPUT] 0    0    [1    /1   ]  93.881               1
[INPUT] 0    0    [1    /1   ]  34.9                 1
[INPUT] 0    0    [12   /2   ]  61420             9e-05 -2e-05
                                9199              0.000698 -0.000159
                                2091              0.003664 -0.000829
                                590.9             0.015218 -0.003508
                                192.3             0.052423 -0.012156
                                69.32             0.145921 -0.036261
                                26.97             0.305258 -0.082992
                                11.1              0.398508 -0.15209
                                4.682             0.21698 -0.115331
                                1.428             0.017594 0.288979
                                0.5547            -0.002502 0.586128
                                0.2067            0.000954 0.277624
[INPUT] 0    0    [1    /1   ]  12.974               1
[INPUT] 0    0    [1    /1   ]  1.428                1
[INPUT] 0    0    [1    /1   ]  0.5547               1
[INPUT] 0    0    [1    /1   ]  0.2067               1
[INPUT] 0    0    [1    /1   ]  0.06959              1
[INPUT] 1    0    [1    /1   ]  126.14               1
[INPUT] 1    0    [1    /1   ]  42.73                1
[INPUT] 1    0    [1    /1   ]  14.475               1
[INPUT] 1    0    [1    /1   ]  1.531                1
[INPUT] 1    0    [6    /1   ]  63.42             0.006044
                                14.66             0.041799
                                4.459             0.161143
                                1.531             0.356731
                                0.5302            0.448309
                                0.175             0.24494
[INPUT] 1    0    [1    /1   ]  0.5302               1
[INPUT] 1    0    [1    /1   ]  0.175                1
[INPUT] 1    0    [1    /1   ]  0.05348              1
[INPUT] 2    0    [1    /1   ]  57.544               1
[INPUT] 2    0    [1    /1   ]  14.927               1
[INPUT] 2    0    [1    /1   ]  3.775                1
[INPUT] 2    0    [1    /1   ]  1.3                  1
[INPUT] 2    0    [1    /1   ]  0.444                1
[INPUT] 2    0    [1    /1   ]  0.154                1
[INPUT] 3    0    [1    /1   ]  26.483               1
[INPUT] 3    0    [1    /1   ]  2.666                1
[INPUT] 3    0    [1    /1   ]  0.859                1
[INPUT] 3    0    [1    /1   ]  0.324                1
[INPUT] 4    0    [1    /1   ]  1.846                1
[INPUT] 4    0    [1    /1   ]  0.714                1

nuclear repulsion = 0
point group symmetry = SO3, use subgroup D2h
symmetry origin: [0. 0. 0.]
symmetry axis x: [1. 0. 0.]
symmetry axis y: [0. 1. 0.]
symmetry axis z: [0. 0. 1.]
num. orbitals of irrep Ag = 27
num. orbitals of irrep B1g = 10
num. orbitals of irrep B2g = 10
num. orbitals of irrep B3g = 10
num. orbitals of irrep Au = 4
num. orbitals of irrep B1u = 16
num. orbitals of irrep B2u = 16
num. orbitals of irrep B3u = 16
number of shells = 28
number of NR pGTOs = 134
number of NR cGTOs = 109
basis = {'O': [[0, [93.881, 1.0]], [0, [34.9, 1.0]], [0, [61420.0, 9e-05, -2e-05], [9199.0, 0.000698, -0.000159], [2091.0, 0.003664, -0.000829], [590.9, 0.015218, -0.003508], [192.3, 0.052423, -0.012156], [69.32, 0.145921, -0.036261], [26.97, 0.305258, -0.082992], [11.1, 0.398508, -0.15209], [4.682, 0.21698, -0.115331], [1.428, 0.017594, 0.288979], [0.5547, -0.002502, 0.586128], [0.2067, 0.000954, 0.277624]], [0, [12.974, 1.0]], [0, [1.428, 1.0]], [0, [0.5547, 1.0]], [0, [0.2067, 1.0]], [0, [0.06959, 1.0]], [1, [126.14, 1.0]], [1, [42.73, 1.0]], [1, [14.475, 1.0]], [1, [1.531, 1.0]], [1, [63.42, 0.006044], [14.66, 0.041799], [4.459, 0.161143], [1.531, 0.356731], [0.5302, 0.448309], [0.175, 0.24494]], [1, [0.5302, 1.0]], [1, [0.175, 1.0]], [1, [0.05348, 1.0]], [2, [57.544, 1.0]], [2, [14.927, 1.0]], [2, [3.775, 1.0]], [2, [1.3, 1.0]], [2, [0.444, 1.0]], [2, [0.154, 1.0]], [3, [26.483, 1.0]], [3, [2.666, 1.0]], [3, [0.859, 1.0]], [3, [0.324, 1.0]], [4, [1.846, 1.0]], [4, [0.714, 1.0]]]}
ecp = {}
bas 0, expnt(s) = [93.881]
bas 1, expnt(s) = [34.9]
bas 2, expnt(s) = [6.142e+04 9.199e+03 2.091e+03 5.909e+02 1.923e+02 6.932e+01 2.697e+01
 1.110e+01 4.682e+00 1.428e+00 5.547e-01 2.067e-01]
bas 3, expnt(s) = [12.974]
bas 4, expnt(s) = [1.428]
bas 5, expnt(s) = [0.5547]
bas 6, expnt(s) = [0.2067]
bas 7, expnt(s) = [0.06959]
bas 8, expnt(s) = [126.14]
bas 9, expnt(s) = [42.73]
bas 10, expnt(s) = [14.475]
bas 11, expnt(s) = [1.531]
bas 12, expnt(s) = [63.42   14.66    4.459   1.531   0.5302  0.175 ]
bas 13, expnt(s) = [0.5302]
bas 14, expnt(s) = [0.175]
bas 15, expnt(s) = [0.05348]
bas 16, expnt(s) = [57.544]
bas 17, expnt(s) = [14.927]
bas 18, expnt(s) = [3.775]
bas 19, expnt(s) = [1.3]
bas 20, expnt(s) = [0.444]
bas 21, expnt(s) = [0.154]
bas 22, expnt(s) = [26.483]
bas 23, expnt(s) = [2.666]
bas 24, expnt(s) = [0.859]
bas 25, expnt(s) = [0.324]
bas 26, expnt(s) = [1.846]
bas 27, expnt(s) = [0.714]
CPU time:         0.92
arg.atm = [[ 8 20  1 23  0  0]]
arg.bas = [[  0   0   1   1   0  24  25   0]
 [  0   0   1   1   0  26  27   0]
 [  0   0  12   2   0  28  40   0]
 [  0   0   1   1   0  64  65   0]
 [  0   0   1   1   0  66  67   0]
 [  0   0   1   1   0  68  69   0]
 [  0   0   1   1   0  70  71   0]
 [  0   0   1   1   0  72  73   0]
 [  0   1   1   1   0  74  75   0]
 [  0   1   1   1   0  76  77   0]
 [  0   1   1   1   0  78  79   0]
 [  0   1   1   1   0  80  81   0]
 [  0   1   6   1   0  82  88   0]
 [  0   1   1   1   0  94  95   0]
 [  0   1   1   1   0  96  97   0]
 [  0   1   1   1   0  98  99   0]
 [  0   2   1   1   0 100 101   0]
 [  0   2   1   1   0 102 103   0]
 [  0   2   1   1   0 104 105   0]
 [  0   2   1   1   0 106 107   0]
 [  0   2   1   1   0 108 109   0]
 [  0   2   1   1   0 110 111   0]
 [  0   3   1   1   0 112 113   0]
 [  0   3   1   1   0 114 115   0]
 [  0   3   1   1   0 116 117   0]
 [  0   3   1   1   0 118 119   0]
 [  0   4   1   1   0 120 121   0]
 [  0   4   1   1   0 122 123   0]]
arg.env = [ 0.00000000e+00  0.00000000e+00  0.00000000e+00  0.00000000e+00
  0.00000000e+00  0.00000000e+00  0.00000000e+00  0.00000000e+00
  0.00000000e+00  0.00000000e+00  0.00000000e+00  0.00000000e+00
  0.00000000e+00  0.00000000e+00  0.00000000e+00  0.00000000e+00
  0.00000000e+00  0.00000000e+00  0.00000000e+00  0.00000000e+00
  0.00000000e+00  0.00000000e+00  0.00000000e+00  0.00000000e+00
  9.38810000e+01  7.61988303e+01  3.49000000e+01  3.62772280e+01
  6.14200000e+04  9.19900000e+03  2.09100000e+03  5.90900000e+02
  1.92300000e+02  6.93200000e+01  2.69700000e+01  1.11000000e+01
  4.68200000e+00  1.42800000e+00  5.54700000e-01  2.06700000e-01
  8.87135990e-01  1.65644194e+00  2.86243952e+00  4.60795684e+00
  6.83945763e+00  8.85680418e+00  9.12731616e+00  6.12272295e+00
  1.74485198e+00  5.80665567e-02 -4.06299474e-03  7.38871750e-04
 -1.97141210e-01 -3.77326799e-01 -6.47642168e-01 -1.06220940e+00
 -1.58595265e+00 -2.20089212e+00 -2.48148699e+00 -2.33672689e+00
 -9.27437554e-01  9.53734520e-01  9.51811956e-01  2.15019292e-01
  1.29740000e+01  1.72711177e+01  1.42800000e+00  3.30035897e+00
  5.54700000e-01  1.62389763e+00  2.06700000e-01  7.74498145e-01
  6.95900000e-02  3.42314386e-01  1.26140000e+02  1.23324802e+03
  4.27300000e+01  3.18713536e+02  1.44750000e+01  8.23678269e+01
  1.53100000e+00  4.96824931e+00  6.34200000e+01  1.46600000e+01
  4.45900000e+00  1.53100000e+00  5.30200000e-01  1.75000000e-01
  3.15566852e+00  3.49798127e+00  3.04608775e+00  1.77232745e+00
  5.91713172e-01  8.08800478e-02  5.30200000e-01  1.31987878e+00
  1.75000000e-01  3.30203714e-01  5.34800000e-02  7.50280468e-02
  5.75440000e+01  3.13710799e+03  1.49270000e+01  2.95788523e+02
  3.77500000e+00  2.66768200e+01  1.30000000e+00  4.12981172e+00
  4.44000000e-01  6.30158188e-01  1.54000000e-01  9.87849189e-02
  2.64830000e+01  3.13824263e+03  2.66600000e+00  1.79141286e+01
  8.59000000e-01  1.40118339e+00  3.24000000e-01  1.56220000e-01
  1.84600000e+00  7.09669709e+00  7.14000000e-01  5.20701927e-01]
ecpbas  = []


******** <class 'pyscf.scf.uhf_symm.SymAdaptedUHF'> ********
method = SymAdaptedUHF
initial guess = atom
damping factor = 0
level_shift factor = 0
DIIS = <class 'pyscf.scf.diis.CDIIS'>
diis_start_cycle = 1
diis_space = 8
diis_damp = 0
SCF conv_tol = 1e-11
SCF conv_tol_grad = None
SCF ddm_tol = 1e-13
SCF max_cycles = 9999
direct_scf = True
direct_scf_tol = 1e-13
chkfile to save SCF result = out.chk
max_memory 8000 MB (current use 90 MB)
number electrons alpha = 5  beta = 2
irrep_nelec {'Ag': 4, 'B3u': 1, 'B2u': 1, 'B1u': 1}
Freeze 7 electrons in irreps ['Ag', 'B3u', 'B2u', 'B1u']
    0 free electrons in irreps B1g B2g B3g Au
cond(S) = 155077.68801121984
Set gradient conv threshold to 3.16228e-06
Spherically averaged atomic HF for {'O'}


******** <class 'pyscf.scf.atom_hf.AtomSphAverageRHF'> ********
method = AtomSphAverageRHF
initial guess = minao
damping factor = 0
level_shift factor = 0
DIIS = <class 'pyscf.scf.diis.CDIIS'>
diis_start_cycle = 1
diis_space = 8
diis_damp = 0
SCF conv_tol = 1e-09
SCF conv_tol_grad = None
SCF ddm_tol = 1e-10
SCF max_cycles = 50
direct_scf = True
direct_scf_tol = 1e-13
chkfile to save SCF result = /tmp/tmpl0w0s8fa
max_memory 8000 MB (current use 91 MB)
atom = O
Set gradient conv threshold to 3.16228e-05
Initial guess from minao.
Nelec from initial guess = 7.999907064959527
E1 = -103.09138659197883  E_coul = 28.805592907560875
init E= -74.285793684418
l = 0  e_0 = -20.7014369
l = 0  e_1 = -1.2631256
l = 0  e_2 = 0.138604803
l = 0  e_3 = 0.88259461
l = 0  e_4 = 3.7392987
l = 0  e_5 = 16.3510571
l = 0  e_6 = 62.9468463
l = 0  e_7 = 215.55668
l = 0  e_8 = 894.392837
l = 1  e_0 = -0.390880622
l = 1  e_1 = 0.139806964
l = 1  e_2 = 0.715036275
l = 1  e_3 = 2.69712405
l = 1  e_4 = 9.25535098
l = 1  e_5 = 33.0697731
l = 1  e_6 = 116.44344
l = 1  e_7 = 395.043869
l = 2  e_0 = 0.471000012
l = 2  e_1 = 1.51758772
l = 2  e_2 = 4.28849052
l = 2  e_3 = 12.5550778
l = 2  e_4 = 46.9566322
l = 2  e_5 = 198.478147
l = 3  e_0 = 1.32440765
l = 3  e_1 = 4.01247612
l = 3  e_2 = 11.7733975
l = 3  e_3 = 103.240571
l = 4  e_0 = 3.61914447
l = 4  e_1 = 10.546233
    CPU time for initialize scf      0.90 sec, wall time      0.34 sec
l = 0  e_0 = -20.7014369
l = 0  e_1 = -1.2631256
l = 0  e_2 = 0.138604803
l = 0  e_3 = 0.88259461
l = 0  e_4 = 3.7392987
l = 0  e_5 = 16.3510571
l = 0  e_6 = 62.9468463
l = 0  e_7 = 215.55668
l = 0  e_8 = 894.392837
l = 1  e_0 = -0.390880622
l = 1  e_1 = 0.139806964
l = 1  e_2 = 0.715036275
l = 1  e_3 = 2.69712405
l = 1  e_4 = 9.25535098
l = 1  e_5 = 33.0697731
l = 1  e_6 = 116.44344
l = 1  e_7 = 395.043869
l = 2  e_0 = 0.471000012
l = 2  e_1 = 1.51758772
l = 2  e_2 = 4.28849052
l = 2  e_3 = 12.5550778
l = 2  e_4 = 46.9566322
l = 2  e_5 = 198.478147
l = 3  e_0 = 1.32440765
l = 3  e_1 = 4.01247612
l = 3  e_2 = 11.7733975
l = 3  e_3 = 103.240571
l = 4  e_0 = 3.61914447
l = 4  e_1 = 10.546233
l = 0  occ = 2 + 0
l = 1  occ = 0 + 1.333
l = 2  occ = 0 + 0
l = 3  occ = 0 + 0
E1 = -102.38223433047891  E_coul = 28.087487153835752
cycle= 1 E= -74.2947471766432  delta_E= -0.00895  |g|=    0  |ddm|= 0.206
    CPU time for cycle= 1      0.13 sec, wall time      0.03 sec
diis-norm(errvec)=0.136149
diis-c [-0.01853644  1.        ]
l = 0  e_0 = -20.8772416
l = 0  e_1 = -1.33290896
l = 0  e_2 = 0.133444799
l = 0  e_3 = 0.859480511
l = 0  e_4 = 3.67555856
l = 0  e_5 = 16.2253462
l = 0  e_6 = 62.7819541
l = 0  e_7 = 215.370757
l = 0  e_8 = 894.189683
l = 1  e_0 = -0.447326918
l = 1  e_1 = 0.137409881
l = 1  e_2 = 0.696744567
l = 1  e_3 = 2.64119234
l = 1  e_4 = 9.14842189
l = 1  e_5 = 32.9167787
l = 1  e_6 = 116.265071
l = 1  e_7 = 394.849944
l = 2  e_0 = 0.465875948
l = 2  e_1 = 1.49224517
l = 2  e_2 = 4.22872349
l = 2  e_3 = 12.4464527
l = 2  e_4 = 46.79731
l = 2  e_5 = 198.293656
l = 3  e_0 = 1.31659296
l = 3  e_1 = 3.97702324
l = 3  e_2 = 11.6840778
l = 3  e_3 = 103.066798
l = 4  e_0 = 3.60051914
l = 4  e_1 = 10.4837403
l = 0  occ = 2 + 0
l = 1  occ = 0 + 1.333
l = 2  occ = 0 + 0
l = 3  occ = 0 + 0
E1 = -102.75331267483074  E_coul = 28.45730103911235
cycle= 2 E= -74.2960116357184  delta_E= -0.00126  |g|=    0  |ddm|= 0.0635
    CPU time for cycle= 2      0.14 sec, wall time      0.03 sec
diis-norm(errvec)=0.0591743
diis-c [-3.10419129e-04  2.94998531e-01  7.05001469e-01]
l = 0  e_0 = -20.8121807
l = 0  e_1 = -1.31042459
l = 0  e_2 = 0.135111728
l = 0  e_3 = 0.866697309
l = 0  e_4 = 3.69757806
l = 0  e_5 = 16.2711196
l = 0  e_6 = 62.8429618
l = 0  e_7 = 215.43978
l = 0  e_8 = 894.263629
l = 1  e_0 = -0.425800922
l = 1  e_1 = 0.138389421
l = 1  e_2 = 0.703774841
l = 1  e_3 = 2.66204697
l = 1  e_4 = 9.18793134
l = 1  e_5 = 32.9731303
l = 1  e_6 = 116.331053
l = 1  e_7 = 394.921604
l = 2  e_0 = 0.467735054
l = 2  e_1 = 1.50138735
l = 2  e_2 = 4.25064659
l = 2  e_3 = 12.4866137
l = 2  e_4 = 46.8563202
l = 2  e_5 = 198.362236
l = 3  e_0 = 1.3193848
l = 3  e_1 = 3.9897652
l = 3  e_2 = 11.7169251
l = 3  e_3 = 103.13119
l = 4  e_0 = 3.60708511
l = 4  e_1 = 10.5064423
l = 0  occ = 2 + 0
l = 1  occ = 0 + 1.333
l = 2  occ = 0 + 0
l = 3  occ = 0 + 0
E1 = -102.62068408376663  E_coul = 28.324284982377257
cycle= 3 E= -74.2963991013894  delta_E= -0.000387  |g|=    0  |ddm|= 0.0275
    CPU time for cycle= 3      0.14 sec, wall time      0.03 sec
diis-norm(errvec)=0.00673045
diis-c [-1.64456573e-06 -9.78006536e-02 -1.08066081e-01  1.20586673e+00]
l = 0  e_0 = -20.8155948
l = 0  e_1 = -1.31258965
l = 0  e_2 = 0.134938651
l = 0  e_3 = 0.865965911
l = 0  e_4 = 3.69602466
l = 0  e_5 = 16.2684728
l = 0  e_6 = 62.8397257
l = 0  e_7 = 215.436575
l = 0  e_8 = 894.260825
l = 1  e_0 = -0.426727481
l = 1  e_1 = 0.138358872
l = 1  e_2 = 0.703457323
l = 1  e_3 = 2.66102624
l = 1  e_4 = 9.18584689
l = 1  e_5 = 32.9700635
l = 1  e_6 = 116.32769
l = 1  e_7 = 394.918507
l = 2  e_0 = 0.467616955
l = 2  e_1 = 1.50086667
l = 2  e_2 = 4.24947446
l = 2  e_3 = 12.4844813
l = 2  e_4 = 46.8530946
l = 2  e_5 = 198.358842
l = 3  e_0 = 1.3192053
l = 3  e_1 = 3.98903503
l = 3  e_2 = 11.715184
l = 3  e_3 = 103.127643
l = 4  e_0 = 3.60666667
l = 4  e_1 = 10.5052062
l = 0  occ = 2 + 0
l = 1  occ = 0 + 1.333
l = 2  occ = 0 + 0
l = 3  occ = 0 + 0
E1 = -102.62858831739436  E_coul = 28.332184802363752
cycle= 4 E= -74.2964035150306  delta_E= -4.41e-06  |g|=    0  |ddm|= 0.00419
    CPU time for cycle= 4      0.14 sec, wall time      0.03 sec
diis-norm(errvec)=0.000239968
diis-c [-4.05985558e-09  1.60916820e-03  2.30207032e-03 -5.18287177e-02
  1.04791748e+00]
l = 0  e_0 = -20.8157237
l = 0  e_1 = -1.31267863
l = 0  e_2 = 0.134919967
l = 0  e_3 = 0.865920716
l = 0  e_4 = 3.6959419
l = 0  e_5 = 16.2683566
l = 0  e_6 = 62.8395998
l = 0  e_7 = 215.436464
l = 0  e_8 = 894.260748
l = 1  e_0 = -0.426777847
l = 1  e_1 = 0.138352676
l = 1  e_2 = 0.703426477
l = 1  e_3 = 2.66096124
l = 1  e_4 = 9.1857473
l = 1  e_5 = 32.9699397
l = 1  e_6 = 116.327566
l = 1  e_7 = 394.918407
l = 2  e_0 = 0.467600508
l = 2  e_1 = 1.50082689
l = 2  e_2 = 4.24940162
l = 2  e_3 = 12.4843776
l = 2  e_4 = 46.8529646
l = 2  e_5 = 198.35872
l = 3  e_0 = 1.31918156
l = 3  e_1 = 3.98897898
l = 3  e_2 = 11.7150906
l = 3  e_3 = 103.127506
l = 4  e_0 = 3.60662453
l = 4  e_1 = 10.5051281
l = 0  occ = 2 + 0
l = 1  occ = 0 + 1.333
l = 2  occ = 0 + 0
l = 3  occ = 0 + 0
E1 = -102.6288819298224  E_coul = 28.332478407638366
cycle= 5 E= -74.296403522184  delta_E= -7.15e-09  |g|=    0  |ddm|= 0.000127
    CPU time for cycle= 5      0.14 sec, wall time      0.03 sec
diis-norm(errvec)=1.15364e-05
diis-c [-1.30088997e-11 -1.07599477e-04 -2.56426670e-04  7.33418475e-03
 -2.06163303e-01  1.19919314e+00]
l = 0  e_0 = -20.8157245
l = 0  e_1 = -1.31268153
l = 0  e_2 = 0.134918218
l = 0  e_3 = 0.865918907
l = 0  e_4 = 3.69593961
l = 0  e_5 = 16.2683553
l = 0  e_6 = 62.8395988
l = 0  e_7 = 215.436463
l = 0  e_8 = 894.260746
l = 1  e_0 = -0.426779551
l = 1  e_1 = 0.138352157
l = 1  e_2 = 0.703424548
l = 1  e_3 = 2.66095893
l = 1  e_4 = 9.18574561
l = 1  e_5 = 32.9699387
l = 1  e_6 = 116.327565
l = 1  e_7 = 394.918406
l = 2  e_0 = 0.467598642
l = 2  e_1 = 1.50082467
l = 2  e_2 = 4.24939902
l = 2  e_3 = 12.4843762
l = 2  e_4 = 46.8529638
l = 2  e_5 = 198.358719
l = 3  e_0 = 1.31917907
l = 3  e_1 = 3.98897593
l = 3  e_2 = 11.7150888
l = 3  e_3 = 103.127505
l = 4  e_0 = 3.60662111
l = 4  e_1 = 10.5051255
l = 0  occ = 2 + 0
l = 1  occ = 0 + 1.333
l = 2  occ = 0 + 0
l = 3  occ = 0 + 0
E1 = -102.62886809085539  E_coul = 28.332464568600063
cycle= 6 E= -74.2964035222553  delta_E= -7.13e-11  |g|=    0  |ddm|= 9.76e-06
    CPU time for cycle= 6      0.14 sec, wall time      0.03 sec
diis-norm(errvec)=1.4939e-06
diis-c [-1.17830847e-13 -4.85889778e-06  1.44368755e-05 -8.85579922e-05
  2.47056352e-03 -4.59432151e-02  1.04355163e+00]
l = 0  e_0 = -20.8157257
l = 0  e_1 = -1.31268226
l = 0  e_2 = 0.134918095
l = 0  e_3 = 0.865918592
l = 0  e_4 = 3.6959389
l = 0  e_5 = 16.2683542
l = 0  e_6 = 62.8395976
l = 0  e_7 = 215.436462
l = 0  e_8 = 894.260745
l = 1  e_0 = -0.426780159
l = 1  e_1 = 0.138352111
l = 1  e_2 = 0.703424276
l = 1  e_3 = 2.6609583
l = 1  e_4 = 9.18574464
l = 1  e_5 = 32.9699376
l = 1  e_6 = 116.327564
l = 1  e_7 = 394.918405
l = 2  e_0 = 0.467598502
l = 2  e_1 = 1.50082429
l = 2  e_2 = 4.24939831
l = 2  e_3 = 12.4843752
l = 2  e_4 = 46.8529626
l = 2  e_5 = 198.358718
l = 3  e_0 = 1.31917887
l = 3  e_1 = 3.9889754
l = 3  e_2 = 11.7150878
l = 3  e_3 = 103.127504
l = 4  e_0 = 3.60662073
l = 4  e_1 = 10.5051247
l = 0  occ = 2 + 0
l = 1  occ = 0 + 1.333
l = 2  occ = 0 + 0
l = 3  occ = 0 + 0
E1 = -102.6288702755418  E_coul = 28.33246675328601
cycle= 7 E= -74.2964035222558  delta_E= -4.55e-13  |g|=    0  |ddm|= 6.73e-07
    CPU time for cycle= 7      0.14 sec, wall time      0.04 sec
diis-norm(errvec)=5.48282e-08
diis-c [-3.04471227e-16  9.40567055e-07 -4.75568520e-07 -1.21747697e-05
  3.74471098e-04  1.95718293e-03 -1.36626492e-01  1.13430655e+00]
l = 0  e_0 = -20.8157257
l = 0  e_1 = -1.31268228
l = 0  e_2 = 0.134918091
l = 0  e_3 = 0.865918582
l = 0  e_4 = 3.69593888
l = 0  e_5 = 16.2683542
l = 0  e_6 = 62.8395976
l = 0  e_7 = 215.436462
l = 0  e_8 = 894.260745
l = 1  e_0 = -0.426780178
l = 1  e_1 = 0.13835211
l = 1  e_2 = 0.703424268
l = 1  e_3 = 2.66095828
l = 1  e_4 = 9.18574461
l = 1  e_5 = 32.9699375
l = 1  e_6 = 116.327564
l = 1  e_7 = 394.918405
l = 2  e_0 = 0.467598497
l = 2  e_1 = 1.50082428
l = 2  e_2 = 4.24939828
l = 2  e_3 = 12.4843752
l = 2  e_4 = 46.8529626
l = 2  e_5 = 198.358717
l = 3  e_0 = 1.31917886
l = 3  e_1 = 3.98897538
l = 3  e_2 = 11.7150878
l = 3  e_3 = 103.127504
l = 4  e_0 = 3.60662072
l = 4  e_1 = 10.5051247
l = 0  occ = 2 + 0
l = 1  occ = 0 + 1.333
l = 2  occ = 0 + 0
l = 3  occ = 0 + 0
E1 = -102.62887030280775  E_coul = 28.332466780552206
cycle= 8 E= -74.2964035222555  delta_E= 2.42e-13  |g|=    0  |ddm|= 6.13e-08
    CPU time for cycle= 8      0.14 sec, wall time      0.03 sec
diis-norm(errvec)=1.44888e-09
Linear dependence found in DIIS error vectors.
diis-c [-1.02551151e-15  3.94902901e-07 -8.68644127e-08 -6.66197894e-06
  2.01303398e-04  4.61179915e-04 -5.30640873e-02  4.88888306e-01
  5.63519652e-01]
l = 0  e_0 = -20.8157257
l = 0  e_1 = -1.31268228
l = 0  e_2 = 0.134918092
l = 0  e_3 = 0.865918582
l = 0  e_4 = 3.69593888
l = 0  e_5 = 16.2683542
l = 0  e_6 = 62.8395976
l = 0  e_7 = 215.436462
l = 0  e_8 = 894.260745
l = 1  e_0 = -0.426780178
l = 1  e_1 = 0.13835211
l = 1  e_2 = 0.703424268
l = 1  e_3 = 2.66095828
l = 1  e_4 = 9.18574461
l = 1  e_5 = 32.9699375
l = 1  e_6 = 116.327564
l = 1  e_7 = 394.918405
l = 2  e_0 = 0.467598497
l = 2  e_1 = 1.50082428
l = 2  e_2 = 4.24939828
l = 2  e_3 = 12.4843752
l = 2  e_4 = 46.8529626
l = 2  e_5 = 198.358717
l = 3  e_0 = 1.31917886
l = 3  e_1 = 3.98897538
l = 3  e_2 = 11.7150878
l = 3  e_3 = 103.127504
l = 4  e_0 = 3.60662072
l = 4  e_1 = 10.5051247
l = 0  occ = 2 + 0
l = 1  occ = 0 + 1.333
l = 2  occ = 0 + 0
l = 3  occ = 0 + 0
E1 = -102.62887030244387  E_coul = 28.332466780188398
cycle= 9 E= -74.2964035222555  delta_E= 7.11e-14  |g|=    0  |ddm|= 3.36e-10
    CPU time for cycle= 9      0.14 sec, wall time      0.03 sec
diis-norm(errvec)=9.10443e-10
Linear dependence found in DIIS error vectors.
diis-c [-8.60466541e-16  3.61791553e-01 -4.95324812e-07  1.99461660e-06
  2.90995253e-05  9.31169770e-04 -3.88505035e-02  3.14454212e-01
  3.61642971e-01]
l = 0  e_0 = -20.8157257
l = 0  e_1 = -1.31268228
l = 0  e_2 = 0.134918092
l = 0  e_3 = 0.865918582
l = 0  e_4 = 3.69593888
l = 0  e_5 = 16.2683542
l = 0  e_6 = 62.8395976
l = 0  e_7 = 215.436462
l = 0  e_8 = 894.260745
l = 1  e_0 = -0.426780178
l = 1  e_1 = 0.13835211
l = 1  e_2 = 0.703424268
l = 1  e_3 = 2.66095828
l = 1  e_4 = 9.18574461
l = 1  e_5 = 32.9699375
l = 1  e_6 = 116.327564
l = 1  e_7 = 394.918405
l = 2  e_0 = 0.467598497
l = 2  e_1 = 1.50082428
l = 2  e_2 = 4.24939828
l = 2  e_3 = 12.4843752
l = 2  e_4 = 46.8529626
l = 2  e_5 = 198.358717
l = 3  e_0 = 1.31917886
l = 3  e_1 = 3.98897538
l = 3  e_2 = 11.7150878
l = 3  e_3 = 103.127504
l = 4  e_0 = 3.60662072
l = 4  e_1 = 10.5051247
l = 0  occ = 2 + 0
l = 1  occ = 0 + 1.333
l = 2  occ = 0 + 0
l = 3  occ = 0 + 0
E1 = -102.62887030104015  E_coul = 28.332466778784305
cycle= 10 E= -74.2964035222558  delta_E= -3.69e-13  |g|=    0  |ddm|= 2.96e-10
    CPU time for cycle= 10      0.14 sec, wall time      0.03 sec
diis-norm(errvec)=8.15006e-10
Linear dependence found in DIIS error vectors.
diis-c [-1.66136909e-16  2.59002136e-01  2.59069732e-01 -4.15828195e-06
  1.86655434e-04 -6.34951669e-04 -1.57032950e-02  2.39160948e-01
  2.58922934e-01]
l = 0  e_0 = -20.8157257
l = 0  e_1 = -1.31268228
l = 0  e_2 = 0.134918092
l = 0  e_3 = 0.865918582
l = 0  e_4 = 3.69593888
l = 0  e_5 = 16.2683542
l = 0  e_6 = 62.8395976
l = 0  e_7 = 215.436462
l = 0  e_8 = 894.260745
l = 1  e_0 = -0.426780178
l = 1  e_1 = 0.13835211
l = 1  e_2 = 0.703424268
l = 1  e_3 = 2.66095828
l = 1  e_4 = 9.18574461
l = 1  e_5 = 32.9699375
l = 1  e_6 = 116.327564
l = 1  e_7 = 394.918405
l = 2  e_0 = 0.467598497
l = 2  e_1 = 1.50082428
l = 2  e_2 = 4.24939828
l = 2  e_3 = 12.4843752
l = 2  e_4 = 46.8529626
l = 2  e_5 = 198.358717
l = 3  e_0 = 1.31917886
l = 3  e_1 = 3.98897538
l = 3  e_2 = 11.7150878
l = 3  e_3 = 103.127504
l = 4  e_0 = 3.60662072
l = 4  e_1 = 10.5051247
l = 0  occ = 2 + 0
l = 1  occ = 0 + 1.333
l = 2  occ = 0 + 0
l = 3  occ = 0 + 0
E1 = -102.62887030137034  E_coul = 28.332466779114952
cycle= 11 E= -74.2964035222554  delta_E= 4.55e-13  |g|=    0  |ddm|= 5.66e-10
    CPU time for cycle= 11      0.14 sec, wall time      0.03 sec
diis-norm(errvec)=9.9534e-10
Linear dependence found in DIIS error vectors.
diis-c [-8.43509098e-16  2.04724657e-01  2.04730099e-01  2.04701110e-01
  4.45014901e-05 -1.09452848e-06 -1.13063154e-02  1.92411353e-01
  2.04695690e-01]
l = 0  e_0 = -20.8157257
l = 0  e_1 = -1.31268228
l = 0  e_2 = 0.134918092
l = 0  e_3 = 0.865918582
l = 0  e_4 = 3.69593888
l = 0  e_5 = 16.2683542
l = 0  e_6 = 62.8395976
l = 0  e_7 = 215.436462
l = 0  e_8 = 894.260745
l = 1  e_0 = -0.426780178
l = 1  e_1 = 0.13835211
l = 1  e_2 = 0.703424268
l = 1  e_3 = 2.66095828
l = 1  e_4 = 9.18574461
l = 1  e_5 = 32.9699375
l = 1  e_6 = 116.327564
l = 1  e_7 = 394.918405
l = 2  e_0 = 0.467598498
l = 2  e_1 = 1.50082428
l = 2  e_2 = 4.24939828
l = 2  e_3 = 12.4843752
l = 2  e_4 = 46.8529626
l = 2  e_5 = 198.358717
l = 3  e_0 = 1.31917886
l = 3  e_1 = 3.98897538
l = 3  e_2 = 11.7150878
l = 3  e_3 = 103.127504
l = 4  e_0 = 3.60662072
l = 4  e_1 = 10.5051247
l = 0  occ = 2 + 0
l = 1  occ = 0 + 1.333
l = 2  occ = 0 + 0
l = 3  occ = 0 + 0
E1 = -102.62887029917549  E_coul = 28.33246677691979
cycle= 12 E= -74.2964035222557  delta_E= -3.13e-13  |g|=    0  |ddm|= 7.16e-10
    CPU time for cycle= 12      0.14 sec, wall time      0.03 sec
diis-norm(errvec)=2.08981e-09
Linear dependence found in DIIS error vectors.
diis-c [-7.78753072e-16  1.68246423e-01  1.68175189e-01  1.68174025e-01
  1.68024270e-01  1.16879181e-04 -4.80943701e-03  1.63800052e-01
  1.68272599e-01]
l = 0  e_0 = -20.8157257
l = 0  e_1 = -1.31268228
l = 0  e_2 = 0.134918092
l = 0  e_3 = 0.865918582
l = 0  e_4 = 3.69593888
l = 0  e_5 = 16.2683542
l = 0  e_6 = 62.8395976
l = 0  e_7 = 215.436462
l = 0  e_8 = 894.260745
l = 1  e_0 = -0.426780177
l = 1  e_1 = 0.13835211
l = 1  e_2 = 0.703424268
l = 1  e_3 = 2.66095828
l = 1  e_4 = 9.18574461
l = 1  e_5 = 32.9699375
l = 1  e_6 = 116.327564
l = 1  e_7 = 394.918405
l = 2  e_0 = 0.467598498
l = 2  e_1 = 1.50082428
l = 2  e_2 = 4.24939828
l = 2  e_3 = 12.4843752
l = 2  e_4 = 46.8529626
l = 2  e_5 = 198.358717
l = 3  e_0 = 1.31917886
l = 3  e_1 = 3.98897538
l = 3  e_2 = 11.7150878
l = 3  e_3 = 103.127504
l = 4  e_0 = 3.60662072
l = 4  e_1 = 10.5051247
l = 0  occ = 2 + 0
l = 1  occ = 0 + 1.333
l = 2  occ = 0 + 0
l = 3  occ = 0 + 0
E1 = -102.62887029992194  E_coul = 28.33246677766633
cycle= 13 E= -74.2964035222556  delta_E= 8.53e-14  |g|=    0  |ddm|= 6.32e-10
    CPU time for cycle= 13      0.14 sec, wall time      0.03 sec
diis-norm(errvec)=1.76976e-09
Linear dependence found in DIIS error vectors.
diis-c [-2.22925554e-17  1.44015312e-01  1.43954673e-01  1.43954331e-01
  1.43828504e-01  1.43881326e-01 -3.94506794e-03  1.40271810e-01
  1.44039111e-01]
l = 0  e_0 = -20.8157257
l = 0  e_1 = -1.31268228
l = 0  e_2 = 0.134918092
l = 0  e_3 = 0.865918582
l = 0  e_4 = 3.69593888
l = 0  e_5 = 16.2683542
l = 0  e_6 = 62.8395976
l = 0  e_7 = 215.436462
l = 0  e_8 = 894.260745
l = 1  e_0 = -0.426780178
l = 1  e_1 = 0.13835211
l = 1  e_2 = 0.703424268
l = 1  e_3 = 2.66095828
l = 1  e_4 = 9.18574461
l = 1  e_5 = 32.9699375
l = 1  e_6 = 116.327564
l = 1  e_7 = 394.918405
l = 2  e_0 = 0.467598497
l = 2  e_1 = 1.50082428
l = 2  e_2 = 4.24939828
l = 2  e_3 = 12.4843752
l = 2  e_4 = 46.8529626
l = 2  e_5 = 198.358717
l = 3  e_0 = 1.31917886
l = 3  e_1 = 3.98897538
l = 3  e_2 = 11.7150878
l = 3  e_3 = 103.127504
l = 4  e_0 = 3.60662072
l = 4  e_1 = 10.5051247
l = 0  occ = 2 + 0
l = 1  occ = 0 + 1.333
l = 2  occ = 0 + 0
l = 3  occ = 0 + 0
E1 = -102.62887030080573  E_coul = 28.33246677855034
cycle= 14 E= -74.2964035222554  delta_E= 2.27e-13  |g|=    0  |ddm|= 3.31e-10
    CPU time for cycle= 14      0.14 sec, wall time      0.03 sec
diis-norm(errvec)=1.30172e-09
Linear dependence found in DIIS error vectors.
diis-c [-4.1157153e-16  1.2500000e-01  1.2500000e-01  1.2500000e-01
  1.2500000e-01  1.2500000e-01  1.2500000e-01  1.2500000e-01
  1.2500000e-01]
l = 0  e_0 = -20.8157257
l = 0  e_1 = -1.31268228
l = 0  e_2 = 0.134918092
l = 0  e_3 = 0.865918582
l = 0  e_4 = 3.69593888
l = 0  e_5 = 16.2683542
l = 0  e_6 = 62.8395976
l = 0  e_7 = 215.436462
l = 0  e_8 = 894.260745
l = 1  e_0 = -0.426780178
l = 1  e_1 = 0.13835211
l = 1  e_2 = 0.703424268
l = 1  e_3 = 2.66095828
l = 1  e_4 = 9.18574461
l = 1  e_5 = 32.9699375
l = 1  e_6 = 116.327564
l = 1  e_7 = 394.918405
l = 2  e_0 = 0.467598497
l = 2  e_1 = 1.50082428
l = 2  e_2 = 4.24939828
l = 2  e_3 = 12.4843752
l = 2  e_4 = 46.8529626
l = 2  e_5 = 198.358717
l = 3  e_0 = 1.31917886
l = 3  e_1 = 3.98897538
l = 3  e_2 = 11.7150878
l = 3  e_3 = 103.127504
l = 4  e_0 = 3.60662072
l = 4  e_1 = 10.5051247
l = 0  occ = 2 + 0
l = 1  occ = 0 + 1.333
l = 2  occ = 0 + 0
l = 3  occ = 0 + 0
E1 = -102.62887030580362  E_coul = 28.33246678354827
cycle= 15 E= -74.2964035222553  delta_E= 4.26e-14  |g|=    0  |ddm|= 1.01e-09
    CPU time for cycle= 15      0.14 sec, wall time      0.03 sec
diis-norm(errvec)=1.80473e-09
Linear dependence found in DIIS error vectors.
diis-c [-2.89052492e-16  1.25000000e-01  1.25000000e-01  1.25000000e-01
  1.25000000e-01  1.25000000e-01  1.25000000e-01  1.25000000e-01
  1.25000000e-01]
l = 0  e_0 = -20.8157257
l = 0  e_1 = -1.31268228
l = 0  e_2 = 0.134918092
l = 0  e_3 = 0.865918582
l = 0  e_4 = 3.69593888
l = 0  e_5 = 16.2683542
l = 0  e_6 = 62.8395976
l = 0  e_7 = 215.436462
l = 0  e_8 = 894.260745
l = 1  e_0 = -0.426780178
l = 1  e_1 = 0.13835211
l = 1  e_2 = 0.703424268
l = 1  e_3 = 2.66095828
l = 1  e_4 = 9.18574461
l = 1  e_5 = 32.9699375
l = 1  e_6 = 116.327564
l = 1  e_7 = 394.918405
l = 2  e_0 = 0.467598497
l = 2  e_1 = 1.50082428
l = 2  e_2 = 4.24939828
l = 2  e_3 = 12.4843752
l = 2  e_4 = 46.8529626
l = 2  e_5 = 198.358717
l = 3  e_0 = 1.31917886
l = 3  e_1 = 3.98897538
l = 3  e_2 = 11.7150878
l = 3  e_3 = 103.127504
l = 4  e_0 = 3.60662072
l = 4  e_1 = 10.5051247
l = 0  occ = 2 + 0
l = 1  occ = 0 + 1.333
l = 2  occ = 0 + 0
l = 3  occ = 0 + 0
E1 = -102.62887030253123  E_coul = 28.33246678027566
cycle= 16 E= -74.2964035222556  delta_E= -2.13e-13  |g|=    0  |ddm|= 7.44e-10
    CPU time for cycle= 16      0.14 sec, wall time      0.03 sec
diis-norm(errvec)=2.25605e-10
Linear dependence found in DIIS error vectors.
diis-c [-2.89052492e-16  1.25000000e-01  1.25000000e-01  1.25000000e-01
  1.25000000e-01  1.25000000e-01  1.25000000e-01  1.25000000e-01
  1.25000000e-01]
l = 0  e_0 = -20.8157257
l = 0  e_1 = -1.31268228
l = 0  e_2 = 0.134918092
l = 0  e_3 = 0.865918582
l = 0  e_4 = 3.69593888
l = 0  e_5 = 16.2683542
l = 0  e_6 = 62.8395976
l = 0  e_7 = 215.436462
l = 0  e_8 = 894.260745
l = 1  e_0 = -0.426780178
l = 1  e_1 = 0.13835211
l = 1  e_2 = 0.703424268
l = 1  e_3 = 2.66095828
l = 1  e_4 = 9.18574461
l = 1  e_5 = 32.9699375
l = 1  e_6 = 116.327564
l = 1  e_7 = 394.918405
l = 2  e_0 = 0.467598497
l = 2  e_1 = 1.50082428
l = 2  e_2 = 4.24939828
l = 2  e_3 = 12.4843752
l = 2  e_4 = 46.8529626
l = 2  e_5 = 198.358717
l = 3  e_0 = 1.31917886
l = 3  e_1 = 3.98897538
l = 3  e_2 = 11.7150878
l = 3  e_3 = 103.127504
l = 4  e_0 = 3.60662072
l = 4  e_1 = 10.5051247
l = 0  occ = 2 + 0
l = 1  occ = 0 + 1.333
l = 2  occ = 0 + 0
l = 3  occ = 0 + 0
E1 = -102.62887030255091  E_coul = 28.33246678029525
cycle= 17 E= -74.2964035222557  delta_E= -9.95e-14  |g|=    0  |ddm|= 1.68e-11
    CPU time for cycle= 17      0.14 sec, wall time      0.03 sec
l = 0  e_0 = -20.8157257
l = 0  e_1 = -1.31268228
l = 0  e_2 = 0.134918092
l = 0  e_3 = 0.865918582
l = 0  e_4 = 3.69593888
l = 0  e_5 = 16.2683542
l = 0  e_6 = 62.8395976
l = 0  e_7 = 215.436462
l = 0  e_8 = 894.260745
l = 1  e_0 = -0.426780178
l = 1  e_1 = 0.13835211
l = 1  e_2 = 0.703424268
l = 1  e_3 = 2.66095828
l = 1  e_4 = 9.18574461
l = 1  e_5 = 32.9699375
l = 1  e_6 = 116.327564
l = 1  e_7 = 394.918405
l = 2  e_0 = 0.467598497
l = 2  e_1 = 1.50082428
l = 2  e_2 = 4.24939828
l = 2  e_3 = 12.4843752
l = 2  e_4 = 46.8529626
l = 2  e_5 = 198.358717
l = 3  e_0 = 1.31917886
l = 3  e_1 = 3.98897538
l = 3  e_2 = 11.7150878
l = 3  e_3 = 103.127504
l = 4  e_0 = 3.60662072
l = 4  e_1 = 10.5051247
l = 0  occ = 2 + 0
l = 1  occ = 0 + 1.333
l = 2  occ = 0 + 0
l = 3  occ = 0 + 0
E1 = -102.62887030198631  E_coul = 28.33246677973067
Extra cycle  E= -74.2964035222556  delta_E= 1.42e-14  |g|=    0  |ddm|= 1.68e-11
    CPU time for scf_cycle      3.36 sec, wall time      0.96 sec
    CPU time for SCF      3.36 sec, wall time      0.96 sec
Atomic HF for atom  O  converged. SCF energy = -74.2964035222556

Atom O, E = -74.2964035223
Nelec from initial guess = (np.float64(3.9999999999999996), np.float64(3.9999999999999996))
E1 = -102.62887030198631  Ecoul = 28.332466779730673
init E= -74.2964035222556
    CPU time for initialize scf      4.42 sec, wall time      1.32 sec
alpha HOMO (B3u) = -0.426780178152396  LUMO (Ag) = 0.134918091544619
alpha irrep_nelec = [2, 0, 0, 0, 0, 1, 1, 1]
beta  irrep_nelec = [2, 0, 0, 0, 0, 0, 0, 0]
alpha-Ag nocc = 2  HOMO = -1.31268228002298  LUMO = 0.134918091544619
   mo_energy = [-2.08157257e+01 -1.31268228e+00  1.34918092e-01  4.67598497e-01
  4.67598497e-01  8.65918582e-01  1.50082428e+00  1.50082428e+00
  3.60662072e+00  3.60662072e+00  3.60662072e+00  3.69593888e+00
  4.24939828e+00  4.24939828e+00  1.05051247e+01  1.05051247e+01
  1.05051247e+01  1.24843752e+01  1.24843752e+01  1.62683542e+01
  4.68529626e+01  4.68529626e+01  6.28395976e+01  1.98358717e+02
  1.98358717e+02  2.15436462e+02  8.94260745e+02]
alpha-B1g nocc = 0
   mo_energy = [  0.4675985    1.50082428   3.60662072   3.60662072   4.24939828
  10.50512472  10.50512472  12.48437519  46.85296261 198.35871747]
alpha-B2g nocc = 0
   mo_energy = [  0.4675985    1.50082428   3.60662072   3.60662072   4.24939828
  10.50512472  10.50512472  12.48437519  46.85296261 198.35871747]
alpha-B3g nocc = 0
   mo_energy = [  0.4675985    1.50082428   3.60662072   3.60662072   4.24939828
  10.50512472  10.50512472  12.48437519  46.85296261 198.35871747]
alpha-Au nocc = 0
   mo_energy = [  1.31917886   3.98897538  11.71508781 103.12750391]
alpha-B1u nocc = 1  HOMO = -0.426780178152404  LUMO = 0.138352109732429
   mo_energy = [-4.26780178e-01  1.38352110e-01  7.03424268e-01  1.31917886e+00
  1.31917886e+00  2.66095828e+00  3.98897538e+00  3.98897538e+00
  9.18574461e+00  1.17150878e+01  1.17150878e+01  3.29699375e+01
  1.03127504e+02  1.03127504e+02  1.16327564e+02  3.94918405e+02]
alpha-B2u nocc = 1  HOMO = -0.426780178152397  LUMO = 0.138352109732446
   mo_energy = [-4.26780178e-01  1.38352110e-01  7.03424268e-01  1.31917886e+00
  1.31917886e+00  2.66095828e+00  3.98897538e+00  3.98897538e+00
  9.18574461e+00  1.17150878e+01  1.17150878e+01  3.29699375e+01
  1.03127504e+02  1.03127504e+02  1.16327564e+02  3.94918405e+02]
alpha-B3u nocc = 1  HOMO = -0.426780178152396  LUMO = 0.138352109732455
   mo_energy = [-4.26780178e-01  1.38352110e-01  7.03424268e-01  1.31917886e+00
  1.31917886e+00  2.66095828e+00  3.98897538e+00  3.98897538e+00
  9.18574461e+00  1.17150878e+01  1.17150878e+01  3.29699375e+01
  1.03127504e+02  1.03127504e+02  1.16327564e+02  3.94918405e+02]
beta-Ag nocc = 2  HOMO = -1.31268228002298  LUMO = 0.134918091544619
   mo_energy = [-2.08157257e+01 -1.31268228e+00  1.34918092e-01  4.67598497e-01
  4.67598497e-01  8.65918582e-01  1.50082428e+00  1.50082428e+00
  3.60662072e+00  3.60662072e+00  3.60662072e+00  3.69593888e+00
  4.24939828e+00  4.24939828e+00  1.05051247e+01  1.05051247e+01
  1.05051247e+01  1.24843752e+01  1.24843752e+01  1.62683542e+01
  4.68529626e+01  4.68529626e+01  6.28395976e+01  1.98358717e+02
  1.98358717e+02  2.15436462e+02  8.94260745e+02]
beta-B1g nocc = 0
   mo_energy = [  0.4675985    1.50082428   3.60662072   3.60662072   4.24939828
  10.50512472  10.50512472  12.48437519  46.85296261 198.35871747]
beta-B2g nocc = 0
   mo_energy = [  0.4675985    1.50082428   3.60662072   3.60662072   4.24939828
  10.50512472  10.50512472  12.48437519  46.85296261 198.35871747]
beta-B3g nocc = 0
   mo_energy = [  0.4675985    1.50082428   3.60662072   3.60662072   4.24939828
  10.50512472  10.50512472  12.48437519  46.85296261 198.35871747]
beta-Au nocc = 0
   mo_energy = [  1.31917886   3.98897538  11.71508781 103.12750391]
beta-B1u nocc = 0
   mo_energy = [-4.26780178e-01  1.38352110e-01  7.03424268e-01  1.31917886e+00
  1.31917886e+00  2.66095828e+00  3.98897538e+00  3.98897538e+00
  9.18574461e+00  1.17150878e+01  1.17150878e+01  3.29699375e+01
  1.03127504e+02  1.03127504e+02  1.16327564e+02  3.94918405e+02]
beta-B2u nocc = 0
   mo_energy = [-4.26780178e-01  1.38352110e-01  7.03424268e-01  1.31917886e+00
  1.31917886e+00  2.66095828e+00  3.98897538e+00  3.98897538e+00
  9.18574461e+00  1.17150878e+01  1.17150878e+01  3.29699375e+01
  1.03127504e+02  1.03127504e+02  1.16327564e+02  3.94918405e+02]
beta-B3u nocc = 0
   mo_energy = [-4.26780178e-01  1.38352110e-01  7.03424268e-01  1.31917886e+00
  1.31917886e+00  2.66095828e+00  3.98897538e+00  3.98897538e+00
  9.18574461e+00  1.17150878e+01  1.17150878e+01  3.29699375e+01
  1.03127504e+02  1.03127504e+02  1.16327564e+02  3.94918405e+02]
multiplicity <S^2> = 3.75  2S+1 = 4
E1 = -96.46412265751617  Ecoul = 22.251330345436266
cycle= 1 E= -74.2127923120799  delta_E= 0.0836  |g|= 0.546  |ddm|= 0.605
    CPU time for cycle= 1      0.34 sec, wall time      0.12 sec
diis-norm(errvec)=0.771882
diis-c [-0.59580153  1.        ]
alpha HOMO (B2u) = -1.46966564579472  LUMO (Ag) = -0.159686775125519
alpha irrep_nelec = [2, 0, 0, 0, 0, 1, 1, 1]
beta  irrep_nelec = [2, 0, 0, 0, 0, 0, 0, 0]
alpha-Ag nocc = 2  HOMO = -2.23501440707922  LUMO = -0.159686775125519
   mo_energy = [-2.19019432e+01 -2.23501441e+00 -1.59686775e-01  1.37585547e-01
  1.37585547e-01  4.16441049e-01  9.57650649e-01  9.57650649e-01
  2.98493738e+00  3.09909095e+00  3.09909095e+00  3.09909095e+00
  3.49951046e+00  3.49951046e+00  9.76499457e+00  9.76499457e+00
  9.76499457e+00  1.15666148e+01  1.15666148e+01  1.53286333e+01
  4.58227388e+01  4.58227388e+01  6.18140927e+01  1.97299318e+02
  1.97299318e+02  2.14382795e+02  8.93198767e+02]
alpha-B1g nocc = 0
   mo_energy = [1.37585547e-01 9.57650649e-01 3.09909095e+00 3.09909095e+00
 3.49951046e+00 9.76499457e+00 9.76499457e+00 1.15666148e+01
 4.58227388e+01 1.97299318e+02]
alpha-B2g nocc = 0
   mo_energy = [1.37585547e-01 9.57650649e-01 3.09909095e+00 3.09909095e+00
 3.49951046e+00 9.76499457e+00 9.76499457e+00 1.15666148e+01
 4.58227388e+01 1.97299318e+02]
alpha-B3g nocc = 0
   mo_energy = [1.37585547e-01 9.57650649e-01 3.09909095e+00 3.09909095e+00
 3.49951046e+00 9.76499457e+00 9.76499457e+00 1.15666148e+01
 4.58227388e+01 1.97299318e+02]
alpha-Au nocc = 0
   mo_energy = [  0.92767027   3.37617104  10.86446484 102.07087417]
alpha-B1u nocc = 1  HOMO = -1.46966564579473  LUMO = -0.0962417596486985
   mo_energy = [-1.46966565e+00 -9.62417596e-02  2.79671822e-01  9.27670268e-01
  9.27670268e-01  1.97206247e+00  3.37617104e+00  3.37617104e+00
  8.29232035e+00  1.08644648e+01  1.08644648e+01  3.19619550e+01
  1.02070874e+02  1.02070874e+02  1.15278865e+02  3.93857362e+02]
alpha-B2u nocc = 1  HOMO = -1.46966564579472  LUMO = -0.0962417596487036
   mo_energy = [-1.46966565e+00 -9.62417596e-02  2.79671822e-01  9.27670268e-01
  9.27670268e-01  1.97206247e+00  3.37617104e+00  3.37617104e+00
  8.29232035e+00  1.08644648e+01  1.08644648e+01  3.19619550e+01
  1.02070874e+02  1.02070874e+02  1.15278865e+02  3.93857362e+02]
alpha-B3u nocc = 1  HOMO = -1.46966564579473  LUMO = -0.0962417596487044
   mo_energy = [-1.46966565e+00 -9.62417596e-02  2.79671822e-01  9.27670268e-01
  9.27670268e-01  1.97206247e+00  3.37617104e+00  3.37617104e+00
  8.29232035e+00  1.08644648e+01  1.08644648e+01  3.19619550e+01
  1.02070874e+02  1.02070874e+02  1.15278865e+02  3.93857362e+02]
beta-Ag nocc = 2  HOMO = -1.76990087220049  LUMO = -0.130575874984532
   mo_energy = [-2.18056326e+01 -1.76990087e+00 -1.30575875e-01  1.71902490e-01
  1.71902490e-01  4.78598778e-01  1.07396262e+00  1.07396262e+00
  3.09023735e+00  3.13176877e+00  3.13176877e+00  3.13176877e+00
  3.65809107e+00  3.65809107e+00  9.83158878e+00  9.83158878e+00
  9.83158878e+00  1.16936025e+01  1.16936025e+01  1.54135579e+01
  4.58813420e+01  4.58813420e+01  6.18487622e+01  1.97313251e+02
  1.97313251e+02  2.14393351e+02  8.93201479e+02]
beta-B1g nocc = 0
   mo_energy = [1.71902490e-01 1.07396262e+00 3.13176877e+00 3.13176877e+00
 3.65809107e+00 9.83158878e+00 9.83158878e+00 1.16936025e+01
 4.58813420e+01 1.97313251e+02]
beta-B2g nocc = 0
   mo_energy = [1.71902490e-01 1.07396262e+00 3.13176877e+00 3.13176877e+00
 3.65809107e+00 9.83158878e+00 9.83158878e+00 1.16936025e+01
 4.58813420e+01 1.97313251e+02]
beta-B3g nocc = 0
   mo_energy = [1.71902490e-01 1.07396262e+00 3.13176877e+00 3.13176877e+00
 3.65809107e+00 9.83158878e+00 9.83158878e+00 1.16936025e+01
 4.58813420e+01 1.97313251e+02]
beta-Au nocc = 0
   mo_energy = [  0.95265314   3.45237559  10.97013279 102.10665878]
beta-B1u nocc = 0
   mo_energy = [-5.83155229e-01 -7.58946394e-02  3.51335572e-01  9.52653144e-01
  9.52653144e-01  2.10324419e+00  3.45237559e+00  3.45237559e+00
  8.40782081e+00  1.09701328e+01  1.09701328e+01  3.20216991e+01
  1.02106659e+02  1.02106659e+02  1.15299631e+02  3.93862826e+02]
beta-B2u nocc = 0
   mo_energy = [-5.83155229e-01 -7.58946394e-02  3.51335572e-01  9.52653144e-01
  9.52653144e-01  2.10324419e+00  3.45237559e+00  3.45237559e+00
  8.40782081e+00  1.09701328e+01  1.09701328e+01  3.20216991e+01
  1.02106659e+02  1.02106659e+02  1.15299631e+02  3.93862826e+02]
beta-B3u nocc = 0
   mo_energy = [-5.83155229e-01 -7.58946394e-02  3.51335572e-01  9.52653144e-01
  9.52653144e-01  2.10324419e+00  3.45237559e+00  3.45237559e+00
  8.40782081e+00  1.09701328e+01  1.09701328e+01  3.20216991e+01
  1.02106659e+02  1.02106659e+02  1.15299631e+02  3.93862826e+02]
multiplicity <S^2> = 3.7504032  2S+1 = 4.0002016
E1 = -98.57601526547276  Ecoul = 24.207065142052677
cycle= 2 E= -74.3689501234201  delta_E= -0.156  |g|= 0.15  |ddm|= 0.394
    CPU time for cycle= 2      0.34 sec, wall time      0.12 sec
diis-norm(errvec)=0.211991
diis-c [-0.03595537  0.11243889  0.88756111]
alpha HOMO (B3u) = -1.33393293725956  LUMO (Ag) = -0.137695998007319
alpha irrep_nelec = [2, 0, 0, 0, 0, 1, 1, 1]
beta  irrep_nelec = [2, 0, 0, 0, 0, 0, 0, 0]
alpha-Ag nocc = 2  HOMO = -2.0793809099325  LUMO = -0.137695998007319
   mo_energy = [-2.14318108e+01 -2.07938091e+00 -1.37695998e-01  1.61176045e-01
  1.61176045e-01  4.66664593e-01  1.02907307e+00  1.02907307e+00
  3.13451399e+00  3.14953525e+00  3.14953525e+00  3.14953525e+00
  3.64388654e+00  3.64388654e+00  9.92920208e+00  9.92920208e+00
  9.92920208e+00  1.18474851e+01  1.18474851e+01  1.56593529e+01
  4.62548643e+01  4.62548643e+01  6.22635360e+01  1.97804118e+02
  1.97804118e+02  2.14889085e+02  8.93733990e+02]
alpha-B1g nocc = 0
   mo_energy = [1.61176045e-01 1.02907307e+00 3.14953525e+00 3.14953525e+00
 3.64388654e+00 9.92920208e+00 9.92920208e+00 1.18474851e+01
 4.62548643e+01 1.97804118e+02]
alpha-B2g nocc = 0
   mo_energy = [1.61176045e-01 1.02907307e+00 3.14953525e+00 3.14953525e+00
 3.64388654e+00 9.92920208e+00 9.92920208e+00 1.18474851e+01
 4.62548643e+01 1.97804118e+02]
alpha-B3g nocc = 0
   mo_energy = [1.61176045e-01 1.02907307e+00 3.14953525e+00 3.14953525e+00
 3.64388654e+00 9.92920208e+00 9.92920208e+00 1.18474851e+01
 4.62548643e+01 1.97804118e+02]
alpha-Au nocc = 0
   mo_energy = [  0.9523509    3.46997425  11.09726533 102.5464746 ]
alpha-B1u nocc = 1  HOMO = -1.33393293725956  LUMO = -0.0858363579677943
   mo_energy = [-1.33393294e+00 -8.58363580e-02  3.18349143e-01  9.52350901e-01
  9.52350901e-01  2.10061110e+00  3.46997425e+00  3.46997425e+00
  8.56779814e+00  1.10972653e+01  1.10972653e+01  3.23736765e+01
  1.02546475e+02  1.02546475e+02  1.15765090e+02  3.94380533e+02]
alpha-B2u nocc = 1  HOMO = -1.33393293725956  LUMO = -0.0858363579677802
   mo_energy = [-1.33393294e+00 -8.58363580e-02  3.18349143e-01  9.52350901e-01
  9.52350901e-01  2.10061110e+00  3.46997425e+00  3.46997425e+00
  8.56779814e+00  1.10972653e+01  1.10972653e+01  3.23736765e+01
  1.02546475e+02  1.02546475e+02  1.15765090e+02  3.94380533e+02]
alpha-B3u nocc = 1  HOMO = -1.33393293725956  LUMO = -0.0858363579677737
   mo_energy = [-1.33393294e+00 -8.58363580e-02  3.18349143e-01  9.52350901e-01
  9.52350901e-01  2.10061110e+00  3.46997425e+00  3.46997425e+00
  8.56779814e+00  1.10972653e+01  1.10972653e+01  3.23736765e+01
  1.02546475e+02  1.02546475e+02  1.15765090e+02  3.94380533e+02]
beta-Ag nocc = 2  HOMO = -1.5666739808609  LUMO = -0.119276042788675
   mo_energy = [-2.13067912e+01 -1.56667398e+00 -1.19276043e-01  1.80550103e-01
  1.80550103e-01  5.28059292e-01  1.13564352e+00  1.13564352e+00
  3.17458822e+00  3.17458822e+00  3.17458822e+00  3.26207442e+00
  3.83308655e+00  3.83308655e+00  1.00026684e+01  1.00026684e+01
  1.00026684e+01  1.20109916e+01  1.20109916e+01  1.57679043e+01
  4.63321697e+01  4.63321697e+01  6.23080183e+01  1.97822303e+02
  1.97822303e+02  2.14902115e+02  8.93736943e+02]
beta-B1g nocc = 0
   mo_energy = [1.80550103e-01 1.13564352e+00 3.17458822e+00 3.17458822e+00
 3.83308655e+00 1.00026684e+01 1.00026684e+01 1.20109916e+01
 4.63321697e+01 1.97822303e+02]
beta-B2g nocc = 0
   mo_energy = [1.80550103e-01 1.13564352e+00 3.17458822e+00 3.17458822e+00
 3.83308655e+00 1.00026684e+01 1.00026684e+01 1.20109916e+01
 4.63321697e+01 1.97822303e+02]
beta-B3g nocc = 0
   mo_energy = [1.80550103e-01 1.13564352e+00 3.17458822e+00 3.17458822e+00
 3.83308655e+00 1.00026684e+01 1.00026684e+01 1.20109916e+01
 4.63321697e+01 1.97822303e+02]
beta-Au nocc = 0
   mo_energy = [  0.96753706   3.54396992  11.2258258  102.59412552]
beta-B1u nocc = 0
   mo_energy = [-3.99087459e-01 -6.11603495e-02  4.14123758e-01  9.67537063e-01
  9.67537063e-01  2.27135378e+00  3.54396992e+00  3.54396992e+00
  8.71646185e+00  1.12258258e+01  1.12258258e+01  3.24515335e+01
  1.02594126e+02  1.02594126e+02  1.15791863e+02  3.94387099e+02]
beta-B2u nocc = 0
   mo_energy = [-3.99087459e-01 -6.11603495e-02  4.14123758e-01  9.67537063e-01
  9.67537063e-01  2.27135378e+00  3.54396992e+00  3.54396992e+00
  8.71646185e+00  1.12258258e+01  1.12258258e+01  3.24515335e+01
  1.02594126e+02  1.02594126e+02  1.15791863e+02  3.94387099e+02]
beta-B3u nocc = 0
   mo_energy = [-3.99087459e-01 -6.11603495e-02  4.14123758e-01  9.67537063e-01
  9.67537063e-01  2.27135378e+00  3.54396992e+00  3.54396992e+00
  8.71646185e+00  1.12258258e+01  1.12258258e+01  3.24515335e+01
  1.02594126e+02  1.02594126e+02  1.15791863e+02  3.94387099e+02]
multiplicity <S^2> = 3.7526597  2S+1 = 4.0013296
E1 = -98.44290790031138  Ecoul = 24.067948086910352
cycle= 3 E= -74.374959813401  delta_E= -0.00601  |g|= 0.0346  |ddm|= 0.0869
    CPU time for cycle= 3      0.33 sec, wall time      0.09 sec
diis-norm(errvec)=0.0488882
diis-c [-9.61396073e-04 -3.45053580e-02 -2.16736206e-01  1.25124156e+00]
alpha HOMO (B2u) = -1.32844354277535  LUMO (Ag) = -0.133858285762853
alpha irrep_nelec = [2, 0, 0, 0, 0, 1, 1, 1]
beta  irrep_nelec = [2, 0, 0, 0, 0, 0, 0, 0]
alpha-Ag nocc = 2  HOMO = -2.06931844245563  LUMO = -0.133858285762853
   mo_energy = [-2.14085195e+01 -2.06931844e+00 -1.33858286e-01  1.65954824e-01
  1.65954824e-01  4.73828423e-01  1.03877812e+00  1.03877812e+00
  3.14925689e+00  3.15877187e+00  3.15877187e+00  3.15877187e+00
  3.65705640e+00  3.65705640e+00  9.94825972e+00  9.94825972e+00
  9.94825972e+00  1.18698916e+01  1.18698916e+01  1.56832559e+01
  4.62817131e+01  4.62817131e+01  6.22878996e+01  1.97825479e+02
  1.97825479e+02  2.14907556e+02  8.93743850e+02]
alpha-B1g nocc = 0
   mo_energy = [1.65954824e-01 1.03877812e+00 3.15877187e+00 3.15877187e+00
 3.65705640e+00 9.94825972e+00 9.94825972e+00 1.18698916e+01
 4.62817131e+01 1.97825479e+02]
alpha-B2g nocc = 0
   mo_energy = [1.65954824e-01 1.03877812e+00 3.15877187e+00 3.15877187e+00
 3.65705640e+00 9.94825972e+00 9.94825972e+00 1.18698916e+01
 4.62817131e+01 1.97825479e+02]
alpha-B3g nocc = 0
   mo_energy = [1.65954824e-01 1.03877812e+00 3.15877187e+00 3.15877187e+00
 3.65705640e+00 9.94825972e+00 9.94825972e+00 1.18698916e+01
 4.62817131e+01 1.97825479e+02]
alpha-Au nocc = 0
   mo_energy = [  0.95755421   3.48286772  11.11853401 102.57358507]
alpha-B1u nocc = 1  HOMO = -1.32844354277536  LUMO = -0.0844286244329297
   mo_energy = [-1.32844354e+00 -8.44286244e-02  3.23099804e-01  9.57554205e-01
  9.57554205e-01  2.11285637e+00  3.48286772e+00  3.48286772e+00
  8.58862156e+00  1.11185340e+01  1.11185340e+01  3.23989444e+01
  1.02573585e+02  1.02573585e+02  1.15787757e+02  3.94395763e+02]
alpha-B2u nocc = 1  HOMO = -1.32844354277535  LUMO = -0.0844286244329368
   mo_energy = [-1.32844354e+00 -8.44286244e-02  3.23099804e-01  9.57554205e-01
  9.57554205e-01  2.11285637e+00  3.48286772e+00  3.48286772e+00
  8.58862156e+00  1.11185340e+01  1.11185340e+01  3.23989444e+01
  1.02573585e+02  1.02573585e+02  1.15787757e+02  3.94395763e+02]
alpha-B3u nocc = 1  HOMO = -1.32844354277536  LUMO = -0.0844286244329412
   mo_energy = [-1.32844354e+00 -8.44286244e-02  3.23099804e-01  9.57554205e-01
  9.57554205e-01  2.11285637e+00  3.48286772e+00  3.48286772e+00
  8.58862156e+00  1.11185340e+01  1.11185340e+01  3.23989444e+01
  1.02573585e+02  1.02573585e+02  1.15787757e+02  3.94395763e+02]
beta-Ag nocc = 2  HOMO = -1.53340783133974  LUMO = -0.11682959817074
   mo_energy = [-2.12791667e+01 -1.53340783e+00 -1.16829598e-01  1.81658415e-01
  1.81658415e-01  5.38050608e-01  1.14376090e+00  1.14376090e+00
  3.18184066e+00  3.18184066e+00  3.18184066e+00  3.28619296e+00
  3.85489890e+00  3.85489890e+00  1.00243062e+01  1.00243062e+01
  1.00243062e+01  1.20402029e+01  1.20402029e+01  1.57985313e+01
  4.63611166e+01  4.63611166e+01  6.23350199e+01  1.97844414e+02
  1.97844414e+02  2.14921805e+02  8.93747473e+02]
beta-B1g nocc = 0
   mo_energy = [1.81658415e-01 1.14376090e+00 3.18184066e+00 3.18184066e+00
 3.85489890e+00 1.00243062e+01 1.00243062e+01 1.20402029e+01
 4.63611166e+01 1.97844414e+02]
beta-B2g nocc = 0
   mo_energy = [1.81658415e-01 1.14376090e+00 3.18184066e+00 3.18184066e+00
 3.85489890e+00 1.00243062e+01 1.00243062e+01 1.20402029e+01
 4.63611166e+01 1.97844414e+02]
beta-B3g nocc = 0
   mo_energy = [1.81658415e-01 1.14376090e+00 3.18184066e+00 3.18184066e+00
 3.85489890e+00 1.00243062e+01 1.00243062e+01 1.20402029e+01
 4.63611166e+01 1.97844414e+02]
beta-Au nocc = 0
   mo_energy = [  0.97001763   3.55713144  11.25325749 102.6222905 ]
beta-B1u nocc = 0
   mo_energy = [-3.81216832e-01 -5.88305513e-02  4.22757265e-01  9.70017633e-01
  9.70017633e-01  2.28902534e+00  3.55713144e+00  3.55713144e+00
  8.74240843e+00  1.12532575e+01  1.12532575e+01  3.24800313e+01
  1.02622290e+02  1.02622290e+02  1.15815990e+02  3.94403129e+02]
beta-B2u nocc = 0
   mo_energy = [-3.81216832e-01 -5.88305513e-02  4.22757265e-01  9.70017633e-01
  9.70017633e-01  2.28902534e+00  3.55713144e+00  3.55713144e+00
  8.74240843e+00  1.12532575e+01  1.12532575e+01  3.24800313e+01
  1.02622290e+02  1.02622290e+02  1.15815990e+02  3.94403129e+02]
beta-B3u nocc = 0
   mo_energy = [-3.81216832e-01 -5.88305513e-02  4.22757265e-01  9.70017633e-01
  9.70017633e-01  2.28902534e+00  3.55713144e+00  3.55713144e+00
  8.74240843e+00  1.12532575e+01  1.12532575e+01  3.24800313e+01
  1.02622290e+02  1.02622290e+02  1.15815990e+02  3.94403129e+02]
multiplicity <S^2> = 3.7548563  2S+1 = 4.0024274
E1 = -98.46046045335493  Ecoul = 24.084685643014716
cycle= 4 E= -74.3757748103402  delta_E= -0.000815  |g|= 0.0067  |ddm|= 0.0548
    CPU time for cycle= 4      0.33 sec, wall time      0.08 sec
diis-norm(errvec)=0.00947968
diis-c [-2.45757052e-05  2.09244566e-03  4.22361235e-02 -3.29961299e-01
  1.28563273e+00]
alpha HOMO (B3u) = -1.33046381666876  LUMO (Ag) = -0.134099964880473
alpha irrep_nelec = [2, 0, 0, 0, 0, 1, 1, 1]
beta  irrep_nelec = [2, 0, 0, 0, 0, 0, 0, 0]
alpha-Ag nocc = 2  HOMO = -2.07151913841276  LUMO = -0.134099964880473
   mo_energy = [-2.14112753e+01 -2.07151914e+00 -1.34099965e-01  1.65932915e-01
  1.65932915e-01  4.73273059e-01  1.03843339e+00  1.03843339e+00
  3.14750670e+00  3.15836678e+00  3.15836678e+00  3.15836678e+00
  3.65518475e+00  3.65518475e+00  9.94655642e+00  9.94655642e+00
  9.94655642e+00  1.18673776e+01  1.18673776e+01  1.56808358e+01
  4.62799887e+01  4.62799887e+01  6.22859642e+01  1.97824199e+02
  1.97824199e+02  2.14905987e+02  8.93742437e+02]
alpha-B1g nocc = 0
   mo_energy = [1.65932915e-01 1.03843339e+00 3.15836678e+00 3.15836678e+00
 3.65518475e+00 9.94655642e+00 9.94655642e+00 1.18673776e+01
 4.62799887e+01 1.97824199e+02]
alpha-B2g nocc = 0
   mo_energy = [1.65932915e-01 1.03843339e+00 3.15836678e+00 3.15836678e+00
 3.65518475e+00 9.94655642e+00 9.94655642e+00 1.18673776e+01
 4.62799887e+01 1.97824199e+02]
alpha-B3g nocc = 0
   mo_energy = [1.65932915e-01 1.03843339e+00 3.15836678e+00 3.15836678e+00
 3.65518475e+00 9.94655642e+00 9.94655642e+00 1.18673776e+01
 4.62799887e+01 1.97824199e+02]
alpha-Au nocc = 0
   mo_energy = [  0.957443     3.48201548  11.11620292 102.57221349]
alpha-B1u nocc = 1  HOMO = -1.33046381666878  LUMO = -0.0846941980392369
   mo_energy = [-1.33046382e+00 -8.46941980e-02  3.22368794e-01  9.57442996e-01
  9.57442996e-01  2.11125228e+00  3.48201548e+00  3.48201548e+00
  8.58646655e+00  1.11162029e+01  1.11162029e+01  3.23970484e+01
  1.02572213e+02  1.02572213e+02  1.15786203e+02  3.94394360e+02]
alpha-B2u nocc = 1  HOMO = -1.33046381666878  LUMO = -0.0846941980392436
   mo_energy = [-1.33046382e+00 -8.46941980e-02  3.22368794e-01  9.57442996e-01
  9.57442996e-01  2.11125228e+00  3.48201548e+00  3.48201548e+00
  8.58646655e+00  1.11162029e+01  1.11162029e+01  3.23970484e+01
  1.02572213e+02  1.02572213e+02  1.15786203e+02  3.94394360e+02]
alpha-B3u nocc = 1  HOMO = -1.33046381666876  LUMO = -0.0846941980392605
   mo_energy = [-1.33046382e+00 -8.46941980e-02  3.22368794e-01  9.57442996e-01
  9.57442996e-01  2.11125228e+00  3.48201548e+00  3.48201548e+00
  8.58646655e+00  1.11162029e+01  1.11162029e+01  3.23970484e+01
  1.02572213e+02  1.02572213e+02  1.15786203e+02  3.94394360e+02]
beta-Ag nocc = 2  HOMO = -1.53111314170392  LUMO = -0.116679775242594
   mo_energy = [-2.12789677e+01 -1.53111314e+00 -1.16679775e-01  1.81363437e-01
  1.81363437e-01  5.38431518e-01  1.14271643e+00  1.14271643e+00
  3.18104514e+00  3.18104514e+00  3.18104514e+00  3.28636235e+00
  3.85394239e+00  3.85394239e+00  1.00227754e+01  1.00227754e+01
  1.00227754e+01  1.20389455e+01  1.20389455e+01  1.57980442e+01
  4.63599126e+01  4.63599126e+01  6.23343823e+01  1.97843615e+02
  1.97843615e+02  2.14921192e+02  8.93746684e+02]
beta-B1g nocc = 0
   mo_energy = [1.81363437e-01 1.14271643e+00 3.18104514e+00 3.18104514e+00
 3.85394239e+00 1.00227754e+01 1.00227754e+01 1.20389455e+01
 4.63599126e+01 1.97843615e+02]
beta-B2g nocc = 0
   mo_energy = [1.81363437e-01 1.14271643e+00 3.18104514e+00 3.18104514e+00
 3.85394239e+00 1.00227754e+01 1.00227754e+01 1.20389455e+01
 4.63599126e+01 1.97843615e+02]
beta-B3g nocc = 0
   mo_energy = [1.81363437e-01 1.14271643e+00 3.18104514e+00 3.18104514e+00
 3.85394239e+00 1.00227754e+01 1.00227754e+01 1.20389455e+01
 4.63599126e+01 1.97843615e+02]
beta-Au nocc = 0
   mo_energy = [  0.969602     3.55595261  11.25179902 102.62122285]
beta-B1u nocc = 0
   mo_energy = [-3.82301566e-01 -5.88337391e-02  4.22634914e-01  9.69601999e-01
  9.69601999e-01  2.28814613e+00  3.55595261e+00  3.55595261e+00
  8.74126053e+00  1.12517990e+01  1.12517990e+01  3.24790927e+01
  1.02621223e+02  1.02621223e+02  1.15815297e+02  3.94402428e+02]
beta-B2u nocc = 0
   mo_energy = [-3.82301566e-01 -5.88337391e-02  4.22634914e-01  9.69601999e-01
  9.69601999e-01  2.28814613e+00  3.55595261e+00  3.55595261e+00
  8.74126053e+00  1.12517990e+01  1.12517990e+01  3.24790927e+01
  1.02621223e+02  1.02621223e+02  1.15815297e+02  3.94402428e+02]
beta-B3u nocc = 0
   mo_energy = [-3.82301566e-01 -5.88337391e-02  4.22634914e-01  9.69601999e-01
  9.69601999e-01  2.28814613e+00  3.55595261e+00  3.55595261e+00
  8.74126053e+00  1.12517990e+01  1.12517990e+01  3.24790927e+01
  1.02621223e+02  1.02621223e+02  1.15815297e+02  3.94402428e+02]
multiplicity <S^2> = 3.7555062  2S+1 = 4.0027521
E1 = -98.46734668561089  Ecoul = 24.091542816866845
cycle= 5 E= -74.375803868744  delta_E= -2.91e-05  |g|= 0.000703  |ddm|= 0.00853
    CPU time for cycle= 5      0.33 sec, wall time      0.08 sec
diis-norm(errvec)=0.000994232
diis-c [-1.11163354e-07  2.09535028e-04 -4.31906945e-03  3.98227568e-02
 -2.37291745e-01  1.20157852e+00]
alpha HOMO (B3u) = -1.33060656583561  LUMO (Ag) = -0.134139634503728
alpha irrep_nelec = [2, 0, 0, 0, 0, 1, 1, 1]
beta  irrep_nelec = [2, 0, 0, 0, 0, 0, 0, 0]
alpha-Ag nocc = 2  HOMO = -2.07172898741244  LUMO = -0.134139634503728
   mo_energy = [-2.14113251e+01 -2.07172899e+00 -1.34139635e-01  1.65896026e-01
  1.65896026e-01  4.73195137e-01  1.03841393e+00  1.03841393e+00
  3.14736597e+00  3.15829225e+00  3.15829225e+00  3.15829225e+00
  3.65508331e+00  3.65508331e+00  9.94643932e+00  9.94643932e+00
  9.94643932e+00  1.18673055e+01  1.18673055e+01  1.56807684e+01
  4.62800989e+01  4.62800989e+01  6.22859829e+01  1.97824247e+02
  1.97824247e+02  2.14905944e+02  8.93742258e+02]
alpha-B1g nocc = 0
   mo_energy = [1.65896026e-01 1.03841393e+00 3.15829225e+00 3.15829225e+00
 3.65508331e+00 9.94643932e+00 9.94643932e+00 1.18673055e+01
 4.62800989e+01 1.97824247e+02]
alpha-B2g nocc = 0
   mo_energy = [1.65896026e-01 1.03841393e+00 3.15829225e+00 3.15829225e+00
 3.65508331e+00 9.94643932e+00 9.94643932e+00 1.18673055e+01
 4.62800989e+01 1.97824247e+02]
alpha-B3g nocc = 0
   mo_energy = [1.65896026e-01 1.03841393e+00 3.15829225e+00 3.15829225e+00
 3.65508331e+00 9.94643932e+00 9.94643932e+00 1.18673055e+01
 4.62800989e+01 1.97824247e+02]
alpha-Au nocc = 0
   mo_energy = [  0.95740182   3.48194273  11.11610236 102.57236734]
alpha-B1u nocc = 1  HOMO = -1.33060656583562  LUMO = -0.0846975418184143
   mo_energy = [-1.33060657e+00 -8.46975418e-02  3.22328807e-01  9.57401820e-01
  9.57401820e-01  2.11116099e+00  3.48194273e+00  3.48194273e+00
  8.58642250e+00  1.11161024e+01  1.11161024e+01  3.23970936e+01
  1.02572367e+02  1.02572367e+02  1.15786240e+02  3.94394280e+02]
alpha-B2u nocc = 1  HOMO = -1.33060656583561  LUMO = -0.0846975418184311
   mo_energy = [-1.33060657e+00 -8.46975418e-02  3.22328807e-01  9.57401820e-01
  9.57401820e-01  2.11116099e+00  3.48194273e+00  3.48194273e+00
  8.58642250e+00  1.11161024e+01  1.11161024e+01  3.23970936e+01
  1.02572367e+02  1.02572367e+02  1.15786240e+02  3.94394280e+02]
alpha-B3u nocc = 1  HOMO = -1.33060656583561  LUMO = -0.0846975418183998
   mo_energy = [-1.33060657e+00 -8.46975418e-02  3.22328807e-01  9.57401820e-01
  9.57401820e-01  2.11116099e+00  3.48194273e+00  3.48194273e+00
  8.58642250e+00  1.11161024e+01  1.11161024e+01  3.23970936e+01
  1.02572367e+02  1.02572367e+02  1.15786240e+02  3.94394280e+02]
beta-Ag nocc = 2  HOMO = -1.53092153121014  LUMO = -0.116666642081741
   mo_energy = [-2.12786562e+01 -1.53092153e+00 -1.16666642e-01  1.81333229e-01
  1.81333229e-01  5.38464863e-01  1.14260355e+00  1.14260355e+00
  3.18093888e+00  3.18093888e+00  3.18093888e+00  3.28643455e+00
  3.85389107e+00  3.85389107e+00  1.00226527e+01  1.00226527e+01
  1.00226527e+01  1.20390184e+01  1.20390184e+01  1.57982169e+01
  4.63600674e+01  4.63600674e+01  6.23345704e+01  1.97843719e+02
  1.97843719e+02  2.14921282e+02  8.93746595e+02]
beta-B1g nocc = 0
   mo_energy = [1.81333229e-01 1.14260355e+00 3.18093888e+00 3.18093888e+00
 3.85389107e+00 1.00226527e+01 1.00226527e+01 1.20390184e+01
 4.63600674e+01 1.97843719e+02]
beta-B2g nocc = 0
   mo_energy = [1.81333229e-01 1.14260355e+00 3.18093888e+00 3.18093888e+00
 3.85389107e+00 1.00226527e+01 1.00226527e+01 1.20390184e+01
 4.63600674e+01 1.97843719e+02]
beta-B3g nocc = 0
   mo_energy = [1.81333229e-01 1.14260355e+00 3.18093888e+00 3.18093888e+00
 3.85389107e+00 1.00226527e+01 1.00226527e+01 1.20390184e+01
 4.63600674e+01 1.97843719e+02]
beta-Au nocc = 0
   mo_energy = [  0.96955386   3.55581522  11.25178199 102.62140144]
beta-B1u nocc = 0
   mo_energy = [-3.82360679e-01 -5.88271465e-02  4.22645802e-01  9.69553859e-01
  9.69553859e-01  2.28813061e+00  3.55581522e+00  3.55581522e+00
  8.74129838e+00  1.12517820e+01  1.12517820e+01  3.24792346e+01
  1.02621401e+02  1.02621401e+02  1.15815441e+02  3.94402445e+02]
beta-B2u nocc = 0
   mo_energy = [-3.82360679e-01 -5.88271465e-02  4.22645802e-01  9.69553859e-01
  9.69553859e-01  2.28813061e+00  3.55581522e+00  3.55581522e+00
  8.74129838e+00  1.12517820e+01  1.12517820e+01  3.24792346e+01
  1.02621401e+02  1.02621401e+02  1.15815441e+02  3.94402445e+02]
beta-B3u nocc = 0
   mo_energy = [-3.82360679e-01 -5.88271465e-02  4.22645802e-01  9.69553859e-01
  9.69553859e-01  2.28813061e+00  3.55581522e+00  3.55581522e+00
  8.74129838e+00  1.12517820e+01  1.12517820e+01  3.24792346e+01
  1.02621401e+02  1.02621401e+02  1.15815441e+02  3.94402445e+02]
multiplicity <S^2> = 3.7555635  2S+1 = 4.0027808
E1 = -98.46721459928236  Ecoul = 24.091410502460356
cycle= 6 E= -74.375804096822  delta_E= -2.28e-07  |g|= 3.33e-05  |ddm|= 0.00106
    CPU time for cycle= 6      0.33 sec, wall time      0.08 sec
diis-norm(errvec)=4.70487e-05
diis-c [-4.92377494e-10 -1.79795996e-05  2.84802164e-04 -2.75645813e-03
  2.11058014e-02 -1.32114138e-01  1.11349797e+00]
alpha HOMO (B2u) = -1.33060233109918  LUMO (Ag) = -0.134140338194717
alpha irrep_nelec = [2, 0, 0, 0, 0, 1, 1, 1]
beta  irrep_nelec = [2, 0, 0, 0, 0, 0, 0, 0]
alpha-Ag nocc = 2  HOMO = -2.07173366853845  LUMO = -0.134140338194717
   mo_energy = [-2.14113135e+01 -2.07173367e+00 -1.34140338e-01  1.65894774e-01
  1.65894774e-01  4.73193538e-01  1.03841650e+00  1.03841650e+00
  3.14736630e+00  3.15829272e+00  3.15829272e+00  3.15829272e+00
  3.65508847e+00  3.65508847e+00  9.94644482e+00  9.94644482e+00
  9.94644482e+00  1.18673129e+01  1.18673129e+01  1.56807737e+01
  4.62801074e+01  4.62801074e+01  6.22859920e+01  1.97824261e+02
  1.97824261e+02  2.14905960e+02  8.93742285e+02]
alpha-B1g nocc = 0
   mo_energy = [1.65894774e-01 1.03841650e+00 3.15829272e+00 3.15829272e+00
 3.65508847e+00 9.94644482e+00 9.94644482e+00 1.18673129e+01
 4.62801074e+01 1.97824261e+02]
alpha-B2g nocc = 0
   mo_energy = [1.65894774e-01 1.03841650e+00 3.15829272e+00 3.15829272e+00
 3.65508847e+00 9.94644482e+00 9.94644482e+00 1.18673129e+01
 4.62801074e+01 1.97824261e+02]
alpha-B3g nocc = 0
   mo_energy = [1.65894774e-01 1.03841650e+00 3.15829272e+00 3.15829272e+00
 3.65508847e+00 9.94644482e+00 9.94644482e+00 1.18673129e+01
 4.62801074e+01 1.97824261e+02]
alpha-Au nocc = 0
   mo_energy = [  0.95740112   3.48194628  11.11610887 102.57237553]
alpha-B1u nocc = 1  HOMO = -1.33060233109918  LUMO = -0.0846961832800622
   mo_energy = [-1.33060233e+00 -8.46961833e-02  3.22331698e-01  9.57401117e-01
  9.57401117e-01  2.11116700e+00  3.48194628e+00  3.48194628e+00
  8.58643086e+00  1.11161089e+01  1.11161089e+01  3.23971023e+01
  1.02572376e+02  1.02572376e+02  1.15786252e+02  3.94394300e+02]
alpha-B2u nocc = 1  HOMO = -1.33060233109918  LUMO = -0.0846961832800458
   mo_energy = [-1.33060233e+00 -8.46961833e-02  3.22331698e-01  9.57401117e-01
  9.57401117e-01  2.11116700e+00  3.48194628e+00  3.48194628e+00
  8.58643086e+00  1.11161089e+01  1.11161089e+01  3.23971023e+01
  1.02572376e+02  1.02572376e+02  1.15786252e+02  3.94394300e+02]
alpha-B3u nocc = 1  HOMO = -1.33060233109918  LUMO = -0.0846961832800432
   mo_energy = [-1.33060233e+00 -8.46961833e-02  3.22331698e-01  9.57401117e-01
  9.57401117e-01  2.11116700e+00  3.48194628e+00  3.48194628e+00
  8.58643086e+00  1.11161089e+01  1.11161089e+01  3.23971023e+01
  1.02572376e+02  1.02572376e+02  1.15786252e+02  3.94394300e+02]
beta-Ag nocc = 2  HOMO = -1.53092151319942  LUMO = -0.116666610595318
   mo_energy = [-2.12786471e+01 -1.53092151e+00 -1.16666611e-01  1.81333887e-01
  1.81333887e-01  5.38465290e-01  1.14260471e+00  1.14260471e+00
  3.18093960e+00  3.18093960e+00  3.18093960e+00  3.28643832e+00
  3.85389501e+00  3.85389501e+00  1.00226573e+01  1.00226573e+01
  1.00226573e+01  1.20390257e+01  1.20390257e+01  1.57982243e+01
  4.63600745e+01  4.63600745e+01  6.23345802e+01  1.97843733e+02
  1.97843733e+02  2.14921298e+02  8.93746623e+02]
beta-B1g nocc = 0
   mo_energy = [1.81333887e-01 1.14260471e+00 3.18093960e+00 3.18093960e+00
 3.85389501e+00 1.00226573e+01 1.00226573e+01 1.20390257e+01
 4.63600745e+01 1.97843733e+02]
beta-B2g nocc = 0
   mo_energy = [1.81333887e-01 1.14260471e+00 3.18093960e+00 3.18093960e+00
 3.85389501e+00 1.00226573e+01 1.00226573e+01 1.20390257e+01
 4.63600745e+01 1.97843733e+02]
beta-B3g nocc = 0
   mo_energy = [1.81333887e-01 1.14260471e+00 3.18093960e+00 3.18093960e+00
 3.85389501e+00 1.00226573e+01 1.00226573e+01 1.20390257e+01
 4.63600745e+01 1.97843733e+02]
beta-Au nocc = 0
   mo_energy = [  0.96955454   3.55581667  11.25178925 102.62140845]
beta-B1u nocc = 0
   mo_energy = [-3.82356878e-01 -5.88268817e-02  4.22647319e-01  9.69554543e-01
  9.69554543e-01  2.28813420e+00  3.55581667e+00  3.55581667e+00
  8.74130421e+00  1.12517893e+01  1.12517893e+01  3.24792431e+01
  1.02621408e+02  1.02621408e+02  1.15815453e+02  3.94402466e+02]
beta-B2u nocc = 0
   mo_energy = [-3.82356878e-01 -5.88268817e-02  4.22647319e-01  9.69554543e-01
  9.69554543e-01  2.28813420e+00  3.55581667e+00  3.55581667e+00
  8.74130421e+00  1.12517893e+01  1.12517893e+01  3.24792431e+01
  1.02621408e+02  1.02621408e+02  1.15815453e+02  3.94402466e+02]
beta-B3u nocc = 0
   mo_energy = [-3.82356878e-01 -5.88268817e-02  4.22647319e-01  9.69554543e-01
  9.69554543e-01  2.28813420e+00  3.55581667e+00  3.55581667e+00
  8.74130421e+00  1.12517893e+01  1.12517893e+01  3.24792431e+01
  1.02621408e+02  1.02621408e+02  1.15815453e+02  3.94402466e+02]
multiplicity <S^2> = 3.7555631  2S+1 = 4.0027806
E1 = -98.46718213078549  Ecoul = 24.091378033390207
cycle= 7 E= -74.3758040973953  delta_E= -5.73e-10  |g|= 2.39e-06  |ddm|= 6.26e-05
    CPU time for cycle= 7      0.33 sec, wall time      0.08 sec
diis-norm(errvec)=3.37435e-06
diis-c [-3.11281919e-12  2.32573798e-08 -2.14258445e-05  2.30449757e-04
 -1.82675332e-03  1.19564031e-02 -1.36062594e-01  1.12572390e+00]
alpha HOMO (B1u) = -1.33060178252527  LUMO (Ag) = -0.134140530809806
alpha irrep_nelec = [2, 0, 0, 0, 0, 1, 1, 1]
beta  irrep_nelec = [2, 0, 0, 0, 0, 0, 0, 0]
alpha-Ag nocc = 2  HOMO = -2.07173444676657  LUMO = -0.134140530809806
   mo_energy = [-2.14113144e+01 -2.07173445e+00 -1.34140531e-01  1.65894704e-01
  1.65894704e-01  4.73193161e-01  1.03841646e+00  1.03841646e+00
  3.14736571e+00  3.15829266e+00  3.15829266e+00  3.15829266e+00
  3.65508834e+00  3.65508834e+00  9.94644468e+00  9.94644468e+00
  9.94644468e+00  1.18673125e+01  1.18673125e+01  1.56807729e+01
  4.62801068e+01  4.62801068e+01  6.22859913e+01  1.97824260e+02
  1.97824260e+02  2.14905960e+02  8.93742285e+02]
alpha-B1g nocc = 0
   mo_energy = [1.65894704e-01 1.03841646e+00 3.15829266e+00 3.15829266e+00
 3.65508834e+00 9.94644468e+00 9.94644468e+00 1.18673125e+01
 4.62801068e+01 1.97824260e+02]
alpha-B2g nocc = 0
   mo_energy = [1.65894704e-01 1.03841646e+00 3.15829266e+00 3.15829266e+00
 3.65508834e+00 9.94644468e+00 9.94644468e+00 1.18673125e+01
 4.62801068e+01 1.97824260e+02]
alpha-B3g nocc = 0
   mo_energy = [1.65894704e-01 1.03841646e+00 3.15829266e+00 3.15829266e+00
 3.65508834e+00 9.94644468e+00 9.94644468e+00 1.18673125e+01
 4.62801068e+01 1.97824260e+02]
alpha-Au nocc = 0
   mo_energy = [  0.95740104   3.48194623  11.11610858 102.57237477]
alpha-B1u nocc = 1  HOMO = -1.33060178252527  LUMO = -0.0846962947859118
   mo_energy = [-1.33060178e+00 -8.46962948e-02  3.22331520e-01  9.57401043e-01
  9.57401043e-01  2.11116698e+00  3.48194623e+00  3.48194623e+00
  8.58643060e+00  1.11161086e+01  1.11161086e+01  3.23971016e+01
  1.02572375e+02  1.02572375e+02  1.15786251e+02  3.94394300e+02]
alpha-B2u nocc = 1  HOMO = -1.33060178252527  LUMO = -0.0846962947858969
   mo_energy = [-1.33060178e+00 -8.46962948e-02  3.22331520e-01  9.57401043e-01
  9.57401043e-01  2.11116698e+00  3.48194623e+00  3.48194623e+00
  8.58643060e+00  1.11161086e+01  1.11161086e+01  3.23971016e+01
  1.02572375e+02  1.02572375e+02  1.15786251e+02  3.94394300e+02]
alpha-B3u nocc = 1  HOMO = -1.33060178252527  LUMO = -0.0846962947859322
   mo_energy = [-1.33060178e+00 -8.46962948e-02  3.22331520e-01  9.57401043e-01
  9.57401043e-01  2.11116698e+00  3.48194623e+00  3.48194623e+00
  8.58643060e+00  1.11161086e+01  1.11161086e+01  3.23971016e+01
  1.02572375e+02  1.02572375e+02  1.15786251e+02  3.94394300e+02]
beta-Ag nocc = 2  HOMO = -1.53092228477905  LUMO = -0.116666659822715
   mo_energy = [-2.12786477e+01 -1.53092228e+00 -1.16666660e-01  1.81333915e-01
  1.81333915e-01  5.38465190e-01  1.14260461e+00  1.14260461e+00
  3.18093954e+00  3.18093954e+00  3.18093954e+00  3.28643813e+00
  3.85389470e+00  3.85389470e+00  1.00226570e+01  1.00226570e+01
  1.00226570e+01  1.20390252e+01  1.20390252e+01  1.57982238e+01
  4.63600736e+01  4.63600736e+01  6.23345796e+01  1.97843732e+02
  1.97843732e+02  2.14921298e+02  8.93746623e+02]
beta-B1g nocc = 0
   mo_energy = [1.81333915e-01 1.14260461e+00 3.18093954e+00 3.18093954e+00
 3.85389470e+00 1.00226570e+01 1.00226570e+01 1.20390252e+01
 4.63600736e+01 1.97843732e+02]
beta-B2g nocc = 0
   mo_energy = [1.81333915e-01 1.14260461e+00 3.18093954e+00 3.18093954e+00
 3.85389470e+00 1.00226570e+01 1.00226570e+01 1.20390252e+01
 4.63600736e+01 1.97843732e+02]
beta-B3g nocc = 0
   mo_energy = [1.81333915e-01 1.14260461e+00 3.18093954e+00 3.18093954e+00
 3.85389470e+00 1.00226570e+01 1.00226570e+01 1.20390252e+01
 4.63600736e+01 1.97843732e+02]
beta-Au nocc = 0
   mo_energy = [  0.96955454   3.55581652  11.25178888 102.62140758]
beta-B1u nocc = 0
   mo_energy = [-3.82357121e-01 -5.88269428e-02  4.22647178e-01  9.69554544e-01
  9.69554544e-01  2.28813391e+00  3.55581652e+00  3.55581652e+00
  8.74130366e+00  1.12517889e+01  1.12517889e+01  3.24792424e+01
  1.02621408e+02  1.02621408e+02  1.15815452e+02  3.94402466e+02]
beta-B2u nocc = 0
   mo_energy = [-3.82357121e-01 -5.88269428e-02  4.22647178e-01  9.69554544e-01
  9.69554544e-01  2.28813391e+00  3.55581652e+00  3.55581652e+00
  8.74130366e+00  1.12517889e+01  1.12517889e+01  3.24792424e+01
  1.02621408e+02  1.02621408e+02  1.15815452e+02  3.94402466e+02]
beta-B3u nocc = 0
   mo_energy = [-3.82357121e-01 -5.88269428e-02  4.22647178e-01  9.69554544e-01
  9.69554544e-01  2.28813391e+00  3.55581652e+00  3.55581652e+00
  8.74130366e+00  1.12517889e+01  1.12517889e+01  3.24792424e+01
  1.02621408e+02  1.02621408e+02  1.15815452e+02  3.94402466e+02]
multiplicity <S^2> = 3.7555631  2S+1 = 4.0027806
E1 = -98.46718445728179  Ecoul = 24.09138035988418
cycle= 8 E= -74.3758040973976  delta_E= -2.33e-12  |g|= 2.08e-07  |ddm|= 2.25e-06
    CPU time for cycle= 8      0.34 sec, wall time      0.09 sec
diis-norm(errvec)=2.93711e-07
diis-c [-7.43735612e-15  1.23348220e-07  2.00869847e-06 -2.34582450e-05
  1.91059086e-04 -1.22183177e-03  1.64742499e-02 -1.85214032e-01
  1.16979188e+00]
alpha HOMO (B3u) = -1.33060169726514  LUMO (Ag) = -0.134140522608333
alpha irrep_nelec = [2, 0, 0, 0, 0, 1, 1, 1]
beta  irrep_nelec = [2, 0, 0, 0, 0, 0, 0, 0]
alpha-Ag nocc = 2  HOMO = -2.07173444671717  LUMO = -0.134140522608333
   mo_energy = [-2.14113143e+01 -2.07173445e+00 -1.34140523e-01  1.65894720e-01
  1.65894720e-01  4.73193171e-01  1.03841649e+00  1.03841649e+00
  3.14736575e+00  3.15829269e+00  3.15829269e+00  3.15829269e+00
  3.65508841e+00  3.65508841e+00  9.94644476e+00  9.94644476e+00
  9.94644476e+00  1.18673126e+01  1.18673126e+01  1.56807730e+01
  4.62801069e+01  4.62801069e+01  6.22859913e+01  1.97824260e+02
  1.97824260e+02  2.14905960e+02  8.93742285e+02]
alpha-B1g nocc = 0
   mo_energy = [1.65894720e-01 1.03841649e+00 3.15829269e+00 3.15829269e+00
 3.65508841e+00 9.94644476e+00 9.94644476e+00 1.18673126e+01
 4.62801069e+01 1.97824260e+02]
alpha-B2g nocc = 0
   mo_energy = [1.65894720e-01 1.03841649e+00 3.15829269e+00 3.15829269e+00
 3.65508841e+00 9.94644476e+00 9.94644476e+00 1.18673126e+01
 4.62801069e+01 1.97824260e+02]
alpha-B3g nocc = 0
   mo_energy = [1.65894720e-01 1.03841649e+00 3.15829269e+00 3.15829269e+00
 3.65508841e+00 9.94644476e+00 9.94644476e+00 1.18673126e+01
 4.62801069e+01 1.97824260e+02]
alpha-Au nocc = 0
   mo_energy = [  0.95740106   3.48194628  11.11610867 102.57237485]
alpha-B1u nocc = 1  HOMO = -1.33060169726514  LUMO = -0.0846962882011009
   mo_energy = [-1.33060170e+00 -8.46962882e-02  3.22331549e-01  9.57401062e-01
  9.57401062e-01  2.11116705e+00  3.48194628e+00  3.48194628e+00
  8.58643070e+00  1.11161087e+01  1.11161087e+01  3.23971017e+01
  1.02572375e+02  1.02572375e+02  1.15786251e+02  3.94394300e+02]
alpha-B2u nocc = 1  HOMO = -1.33060169726514  LUMO = -0.0846962882010949
   mo_energy = [-1.33060170e+00 -8.46962882e-02  3.22331549e-01  9.57401062e-01
  9.57401062e-01  2.11116705e+00  3.48194628e+00  3.48194628e+00
  8.58643070e+00  1.11161087e+01  1.11161087e+01  3.23971017e+01
  1.02572375e+02  1.02572375e+02  1.15786251e+02  3.94394300e+02]
alpha-B3u nocc = 1  HOMO = -1.33060169726514  LUMO = -0.084696288201101
   mo_energy = [-1.33060170e+00 -8.46962882e-02  3.22331549e-01  9.57401062e-01
  9.57401062e-01  2.11116705e+00  3.48194628e+00  3.48194628e+00
  8.58643070e+00  1.11161087e+01  1.11161087e+01  3.23971017e+01
  1.02572375e+02  1.02572375e+02  1.15786251e+02  3.94394300e+02]
beta-Ag nocc = 2  HOMO = -1.53092224861677  LUMO = -0.116666656729674
   mo_energy = [-2.12786476e+01 -1.53092225e+00 -1.16666657e-01  1.81333926e-01
  1.81333926e-01  5.38465207e-01  1.14260465e+00  1.14260465e+00
  3.18093958e+00  3.18093958e+00  3.18093958e+00  3.28643818e+00
  3.85389477e+00  3.85389477e+00  1.00226571e+01  1.00226571e+01
  1.00226571e+01  1.20390252e+01  1.20390252e+01  1.57982239e+01
  4.63600737e+01  4.63600737e+01  6.23345797e+01  1.97843732e+02
  1.97843732e+02  2.14921298e+02  8.93746623e+02]
beta-B1g nocc = 0
   mo_energy = [1.81333926e-01 1.14260465e+00 3.18093958e+00 3.18093958e+00
 3.85389477e+00 1.00226571e+01 1.00226571e+01 1.20390252e+01
 4.63600737e+01 1.97843732e+02]
beta-B2g nocc = 0
   mo_energy = [1.81333926e-01 1.14260465e+00 3.18093958e+00 3.18093958e+00
 3.85389477e+00 1.00226571e+01 1.00226571e+01 1.20390252e+01
 4.63600737e+01 1.97843732e+02]
beta-B3g nocc = 0
   mo_energy = [1.81333926e-01 1.14260465e+00 3.18093958e+00 3.18093958e+00
 3.85389477e+00 1.00226571e+01 1.00226571e+01 1.20390252e+01
 4.63600737e+01 1.97843732e+02]
beta-Au nocc = 0
   mo_energy = [  0.96955456   3.55581658  11.25178897 102.62140764]
beta-B1u nocc = 0
   mo_energy = [-3.82357058e-01 -5.88269384e-02  4.22647200e-01  9.69554561e-01
  9.69554561e-01  2.28813396e+00  3.55581658e+00  3.55581658e+00
  8.74130373e+00  1.12517890e+01  1.12517890e+01  3.24792425e+01
  1.02621408e+02  1.02621408e+02  1.15815452e+02  3.94402466e+02]
beta-B2u nocc = 0
   mo_energy = [-3.82357058e-01 -5.88269384e-02  4.22647200e-01  9.69554561e-01
  9.69554561e-01  2.28813396e+00  3.55581658e+00  3.55581658e+00
  8.74130373e+00  1.12517890e+01  1.12517890e+01  3.24792425e+01
  1.02621408e+02  1.02621408e+02  1.15815452e+02  3.94402466e+02]
beta-B3u nocc = 0
   mo_energy = [-3.82357058e-01 -5.88269384e-02  4.22647200e-01  9.69554561e-01
  9.69554561e-01  2.28813396e+00  3.55581658e+00  3.55581658e+00
  8.74130373e+00  1.12517890e+01  1.12517890e+01  3.24792425e+01
  1.02621408e+02  1.02621408e+02  1.15815452e+02  3.94402466e+02]
multiplicity <S^2> = 3.7555631  2S+1 = 4.0027806
E1 = -98.46718445805159  Ecoul = 24.091380360654004
cycle= 9 E= -74.3758040973976  delta_E= 1.42e-14  |g|= 8.43e-09  |ddm|= 1.27e-07
    CPU time for cycle= 9      0.33 sec, wall time      0.08 sec
diis-norm(errvec)=1.19211e-08
Linear dependence found in DIIS error vectors.
diis-c [-2.29905856e-15  5.84799783e-01  9.11398583e-07 -1.12416629e-05
  9.53167988e-05 -6.13413163e-04  7.56660781e-03 -7.89074110e-02
  4.87069447e-01]
alpha HOMO (B3u) = -1.33060169491456  LUMO (Ag) = -0.134140521735742
alpha irrep_nelec = [2, 0, 0, 0, 0, 1, 1, 1]
beta  irrep_nelec = [2, 0, 0, 0, 0, 0, 0, 0]
alpha-Ag nocc = 2  HOMO = -2.07173444429285  LUMO = -0.134140521735742
   mo_energy = [-2.14113143e+01 -2.07173444e+00 -1.34140522e-01  1.65894721e-01
  1.65894721e-01  4.73193173e-01  1.03841649e+00  1.03841649e+00
  3.14736575e+00  3.15829270e+00  3.15829270e+00  3.15829270e+00
  3.65508841e+00  3.65508841e+00  9.94644476e+00  9.94644476e+00
  9.94644476e+00  1.18673126e+01  1.18673126e+01  1.56807730e+01
  4.62801069e+01  4.62801069e+01  6.22859913e+01  1.97824260e+02
  1.97824260e+02  2.14905960e+02  8.93742285e+02]
alpha-B1g nocc = 0
   mo_energy = [1.65894721e-01 1.03841649e+00 3.15829270e+00 3.15829270e+00
 3.65508841e+00 9.94644476e+00 9.94644476e+00 1.18673126e+01
 4.62801069e+01 1.97824260e+02]
alpha-B2g nocc = 0
   mo_energy = [1.65894721e-01 1.03841649e+00 3.15829270e+00 3.15829270e+00
 3.65508841e+00 9.94644476e+00 9.94644476e+00 1.18673126e+01
 4.62801069e+01 1.97824260e+02]
alpha-B3g nocc = 0
   mo_energy = [1.65894721e-01 1.03841649e+00 3.15829270e+00 3.15829270e+00
 3.65508841e+00 9.94644476e+00 9.94644476e+00 1.18673126e+01
 4.62801069e+01 1.97824260e+02]
alpha-Au nocc = 0
   mo_energy = [  0.95740106   3.48194628  11.11610868 102.57237486]
alpha-B1u nocc = 1  HOMO = -1.33060169491456  LUMO = -0.084696287482195
   mo_energy = [-1.33060169e+00 -8.46962875e-02  3.22331551e-01  9.57401063e-01
  9.57401063e-01  2.11116705e+00  3.48194628e+00  3.48194628e+00
  8.58643070e+00  1.11161087e+01  1.11161087e+01  3.23971017e+01
  1.02572375e+02  1.02572375e+02  1.15786251e+02  3.94394300e+02]
alpha-B2u nocc = 1  HOMO = -1.33060169491456  LUMO = -0.0846962874821998
   mo_energy = [-1.33060169e+00 -8.46962875e-02  3.22331551e-01  9.57401063e-01
  9.57401063e-01  2.11116705e+00  3.48194628e+00  3.48194628e+00
  8.58643070e+00  1.11161087e+01  1.11161087e+01  3.23971017e+01
  1.02572375e+02  1.02572375e+02  1.15786251e+02  3.94394300e+02]
alpha-B3u nocc = 1  HOMO = -1.33060169491456  LUMO = -0.0846962874821563
   mo_energy = [-1.33060169e+00 -8.46962875e-02  3.22331551e-01  9.57401063e-01
  9.57401063e-01  2.11116705e+00  3.48194628e+00  3.48194628e+00
  8.58643070e+00  1.11161087e+01  1.11161087e+01  3.23971017e+01
  1.02572375e+02  1.02572375e+02  1.15786251e+02  3.94394300e+02]
beta-Ag nocc = 2  HOMO = -1.53092224195648  LUMO = -0.11666665635392
   mo_energy = [-2.12786476e+01 -1.53092224e+00 -1.16666656e-01  1.81333926e-01
  1.81333926e-01  5.38465209e-01  1.14260466e+00  1.14260466e+00
  3.18093959e+00  3.18093959e+00  3.18093959e+00  3.28643819e+00
  3.85389478e+00  3.85389478e+00  1.00226571e+01  1.00226571e+01
  1.00226571e+01  1.20390252e+01  1.20390252e+01  1.57982239e+01
  4.63600737e+01  4.63600737e+01  6.23345797e+01  1.97843732e+02
  1.97843732e+02  2.14921298e+02  8.93746623e+02]
beta-B1g nocc = 0
   mo_energy = [1.81333926e-01 1.14260466e+00 3.18093959e+00 3.18093959e+00
 3.85389478e+00 1.00226571e+01 1.00226571e+01 1.20390252e+01
 4.63600737e+01 1.97843732e+02]
beta-B2g nocc = 0
[...]
  8.74130373e+00  1.12517890e+01  1.12517890e+01  3.24792425e+01
  1.02621408e+02  1.02621408e+02  1.15815452e+02  3.94402466e+02]
multiplicity <S^2> = 3.7555631  2S+1 = 4.0027806
E1 = -98.46718445310034  Ecoul = 24.091380355702768
cycle= 77 E= -74.3758040973976  delta_E= -2.84e-14  |g|= 6.29e-13  |ddm|= 5.29e-13
    CPU time for cycle= 77      0.33 sec, wall time      0.08 sec
diis-norm(errvec)=1.27838e-12
Linear dependence found in DIIS error vectors.
diis-c [-2.89052492e-16  1.25000000e-01  1.25000000e-01  1.25000000e-01
  1.25000000e-01  1.25000000e-01  1.25000000e-01  1.25000000e-01
  1.25000000e-01]
alpha HOMO (B2u) = -1.33060169931383  LUMO (Ag) = -0.134140522313485
alpha irrep_nelec = [2, 0, 0, 0, 0, 1, 1, 1]
beta  irrep_nelec = [2, 0, 0, 0, 0, 0, 0, 0]
alpha-Ag nocc = 2  HOMO = -2.07173445066427  LUMO = -0.134140522313485
   mo_energy = [-2.14113143e+01 -2.07173445e+00 -1.34140522e-01  1.65894720e-01
  1.65894720e-01  4.73193171e-01  1.03841649e+00  1.03841649e+00
  3.14736575e+00  3.15829269e+00  3.15829269e+00  3.15829269e+00
  3.65508841e+00  3.65508841e+00  9.94644476e+00  9.94644476e+00
  9.94644476e+00  1.18673126e+01  1.18673126e+01  1.56807730e+01
  4.62801069e+01  4.62801069e+01  6.22859913e+01  1.97824260e+02
  1.97824260e+02  2.14905960e+02  8.93742285e+02]
alpha-B1g nocc = 0
   mo_energy = [1.65894720e-01 1.03841649e+00 3.15829269e+00 3.15829269e+00
 3.65508841e+00 9.94644476e+00 9.94644476e+00 1.18673126e+01
 4.62801069e+01 1.97824260e+02]
alpha-B2g nocc = 0
   mo_energy = [1.65894720e-01 1.03841649e+00 3.15829269e+00 3.15829269e+00
 3.65508841e+00 9.94644476e+00 9.94644476e+00 1.18673126e+01
 4.62801069e+01 1.97824260e+02]
alpha-B3g nocc = 0
   mo_energy = [1.65894720e-01 1.03841649e+00 3.15829269e+00 3.15829269e+00
 3.65508841e+00 9.94644476e+00 9.94644476e+00 1.18673126e+01
 4.62801069e+01 1.97824260e+02]
alpha-Au nocc = 0
   mo_energy = [  0.95740106   3.48194628  11.11610867 102.57237485]
alpha-B1u nocc = 1  HOMO = -1.33060169931384  LUMO = -0.0846962877082996
   mo_energy = [-1.33060170e+00 -8.46962877e-02  3.22331550e-01  9.57401063e-01
  9.57401063e-01  2.11116705e+00  3.48194628e+00  3.48194628e+00
  8.58643070e+00  1.11161087e+01  1.11161087e+01  3.23971017e+01
  1.02572375e+02  1.02572375e+02  1.15786251e+02  3.94394300e+02]
alpha-B2u nocc = 1  HOMO = -1.33060169931383  LUMO = -0.0846962877083047
   mo_energy = [-1.33060170e+00 -8.46962877e-02  3.22331550e-01  9.57401063e-01
  9.57401063e-01  2.11116705e+00  3.48194628e+00  3.48194628e+00
  8.58643070e+00  1.11161087e+01  1.11161087e+01  3.23971017e+01
  1.02572375e+02  1.02572375e+02  1.15786251e+02  3.94394300e+02]
alpha-B3u nocc = 1  HOMO = -1.33060169931383  LUMO = -0.0846962877083121
   mo_energy = [-1.33060170e+00 -8.46962877e-02  3.22331550e-01  9.57401063e-01
  9.57401063e-01  2.11116705e+00  3.48194628e+00  3.48194628e+00
  8.58643070e+00  1.11161087e+01  1.11161087e+01  3.23971017e+01
  1.02572375e+02  1.02572375e+02  1.15786251e+02  3.94394300e+02]
beta-Ag nocc = 2  HOMO = -1.53092224471872  LUMO = -0.116666656554362
   mo_energy = [-2.12786476e+01 -1.53092224e+00 -1.16666657e-01  1.81333926e-01
  1.81333926e-01  5.38465208e-01  1.14260465e+00  1.14260465e+00
  3.18093958e+00  3.18093958e+00  3.18093958e+00  3.28643818e+00
  3.85389478e+00  3.85389478e+00  1.00226571e+01  1.00226571e+01
  1.00226571e+01  1.20390252e+01  1.20390252e+01  1.57982239e+01
  4.63600737e+01  4.63600737e+01  6.23345797e+01  1.97843732e+02
  1.97843732e+02  2.14921298e+02  8.93746623e+02]
beta-B1g nocc = 0
   mo_energy = [1.81333926e-01 1.14260465e+00 3.18093958e+00 3.18093958e+00
 3.85389478e+00 1.00226571e+01 1.00226571e+01 1.20390252e+01
 4.63600737e+01 1.97843732e+02]
beta-B2g nocc = 0
   mo_energy = [1.81333926e-01 1.14260465e+00 3.18093958e+00 3.18093958e+00
 3.85389478e+00 1.00226571e+01 1.00226571e+01 1.20390252e+01
 4.63600737e+01 1.97843732e+02]
beta-B3g nocc = 0
   mo_energy = [1.81333926e-01 1.14260465e+00 3.18093958e+00 3.18093958e+00
 3.85389478e+00 1.00226571e+01 1.00226571e+01 1.20390252e+01
 4.63600737e+01 1.97843732e+02]
beta-Au nocc = 0
   mo_energy = [  0.96955456   3.55581659  11.25178897 102.62140764]
beta-B1u nocc = 0
   mo_energy = [-3.82357058e-01 -5.88269381e-02  4.22647200e-01  9.69554561e-01
  9.69554561e-01  2.28813396e+00  3.55581659e+00  3.55581659e+00
  8.74130373e+00  1.12517890e+01  1.12517890e+01  3.24792425e+01
  1.02621408e+02  1.02621408e+02  1.15815452e+02  3.94402466e+02]
beta-B2u nocc = 0
   mo_energy = [-3.82357058e-01 -5.88269381e-02  4.22647200e-01  9.69554561e-01
  9.69554561e-01  2.28813396e+00  3.55581659e+00  3.55581659e+00
  8.74130373e+00  1.12517890e+01  1.12517890e+01  3.24792425e+01
  1.02621408e+02  1.02621408e+02  1.15815452e+02  3.94402466e+02]
beta-B3u nocc = 0
   mo_energy = [-3.82357058e-01 -5.88269381e-02  4.22647200e-01  9.69554561e-01
  9.69554561e-01  2.28813396e+00  3.55581659e+00  3.55581659e+00
  8.74130373e+00  1.12517890e+01  1.12517890e+01  3.24792425e+01
  1.02621408e+02  1.02621408e+02  1.15815452e+02  3.94402466e+02]
multiplicity <S^2> = 3.7555631  2S+1 = 4.0027806
E1 = -98.46718445310032  Ecoul = 24.09138035570274
cycle= 78 E= -74.3758040973976  delta_E=    0  |g|= 4.46e-13  |ddm|= 1.39e-13
    CPU time for cycle= 78      0.33 sec, wall time      0.08 sec
diis-norm(errvec)=5.81039e-13
Linear dependence found in DIIS error vectors.
diis-c [-2.89052492e-16  1.25000000e-01  1.25000000e-01  1.25000000e-01
  1.25000000e-01  1.25000000e-01  1.25000000e-01  1.25000000e-01
  1.25000000e-01]
alpha HOMO (B3u) = -1.33060169931383  LUMO (Ag) = -0.134140522313478
alpha irrep_nelec = [2, 0, 0, 0, 0, 1, 1, 1]
beta  irrep_nelec = [2, 0, 0, 0, 0, 0, 0, 0]
alpha-Ag nocc = 2  HOMO = -2.07173445066427  LUMO = -0.134140522313478
   mo_energy = [-2.14113143e+01 -2.07173445e+00 -1.34140522e-01  1.65894720e-01
  1.65894720e-01  4.73193171e-01  1.03841649e+00  1.03841649e+00
  3.14736575e+00  3.15829269e+00  3.15829269e+00  3.15829269e+00
  3.65508841e+00  3.65508841e+00  9.94644476e+00  9.94644476e+00
  9.94644476e+00  1.18673126e+01  1.18673126e+01  1.56807730e+01
  4.62801069e+01  4.62801069e+01  6.22859913e+01  1.97824260e+02
  1.97824260e+02  2.14905960e+02  8.93742285e+02]
alpha-B1g nocc = 0
   mo_energy = [1.65894720e-01 1.03841649e+00 3.15829269e+00 3.15829269e+00
 3.65508841e+00 9.94644476e+00 9.94644476e+00 1.18673126e+01
 4.62801069e+01 1.97824260e+02]
alpha-B2g nocc = 0
   mo_energy = [1.65894720e-01 1.03841649e+00 3.15829269e+00 3.15829269e+00
 3.65508841e+00 9.94644476e+00 9.94644476e+00 1.18673126e+01
 4.62801069e+01 1.97824260e+02]
alpha-B3g nocc = 0
   mo_energy = [1.65894720e-01 1.03841649e+00 3.15829269e+00 3.15829269e+00
 3.65508841e+00 9.94644476e+00 9.94644476e+00 1.18673126e+01
 4.62801069e+01 1.97824260e+02]
alpha-Au nocc = 0
   mo_energy = [  0.95740106   3.48194628  11.11610867 102.57237485]
alpha-B1u nocc = 1  HOMO = -1.33060169931383  LUMO = -0.0846962877083064
   mo_energy = [-1.33060170e+00 -8.46962877e-02  3.22331550e-01  9.57401063e-01
  9.57401063e-01  2.11116705e+00  3.48194628e+00  3.48194628e+00
  8.58643070e+00  1.11161087e+01  1.11161087e+01  3.23971017e+01
  1.02572375e+02  1.02572375e+02  1.15786251e+02  3.94394300e+02]
alpha-B2u nocc = 1  HOMO = -1.33060169931383  LUMO = -0.0846962877083137
   mo_energy = [-1.33060170e+00 -8.46962877e-02  3.22331550e-01  9.57401063e-01
  9.57401063e-01  2.11116705e+00  3.48194628e+00  3.48194628e+00
  8.58643070e+00  1.11161087e+01  1.11161087e+01  3.23971017e+01
  1.02572375e+02  1.02572375e+02  1.15786251e+02  3.94394300e+02]
alpha-B3u nocc = 1  HOMO = -1.33060169931383  LUMO = -0.0846962877082712
   mo_energy = [-1.33060170e+00 -8.46962877e-02  3.22331550e-01  9.57401063e-01
  9.57401063e-01  2.11116705e+00  3.48194628e+00  3.48194628e+00
  8.58643070e+00  1.11161087e+01  1.11161087e+01  3.23971017e+01
  1.02572375e+02  1.02572375e+02  1.15786251e+02  3.94394300e+02]
beta-Ag nocc = 2  HOMO = -1.53092224471873  LUMO = -0.11666665655436
   mo_energy = [-2.12786476e+01 -1.53092224e+00 -1.16666657e-01  1.81333926e-01
  1.81333926e-01  5.38465208e-01  1.14260465e+00  1.14260465e+00
  3.18093958e+00  3.18093958e+00  3.18093958e+00  3.28643818e+00
  3.85389478e+00  3.85389478e+00  1.00226571e+01  1.00226571e+01
  1.00226571e+01  1.20390252e+01  1.20390252e+01  1.57982239e+01
  4.63600737e+01  4.63600737e+01  6.23345797e+01  1.97843732e+02
  1.97843732e+02  2.14921298e+02  8.93746623e+02]
beta-B1g nocc = 0
   mo_energy = [1.81333926e-01 1.14260465e+00 3.18093958e+00 3.18093958e+00
 3.85389478e+00 1.00226571e+01 1.00226571e+01 1.20390252e+01
 4.63600737e+01 1.97843732e+02]
beta-B2g nocc = 0
   mo_energy = [1.81333926e-01 1.14260465e+00 3.18093958e+00 3.18093958e+00
 3.85389478e+00 1.00226571e+01 1.00226571e+01 1.20390252e+01
 4.63600737e+01 1.97843732e+02]
beta-B3g nocc = 0
   mo_energy = [1.81333926e-01 1.14260465e+00 3.18093958e+00 3.18093958e+00
 3.85389478e+00 1.00226571e+01 1.00226571e+01 1.20390252e+01
 4.63600737e+01 1.97843732e+02]
beta-Au nocc = 0
   mo_energy = [  0.96955456   3.55581659  11.25178897 102.62140764]
beta-B1u nocc = 0
   mo_energy = [-3.82357058e-01 -5.88269381e-02  4.22647200e-01  9.69554561e-01
  9.69554561e-01  2.28813396e+00  3.55581659e+00  3.55581659e+00
  8.74130373e+00  1.12517890e+01  1.12517890e+01  3.24792425e+01
  1.02621408e+02  1.02621408e+02  1.15815452e+02  3.94402466e+02]
beta-B2u nocc = 0
   mo_energy = [-3.82357058e-01 -5.88269381e-02  4.22647200e-01  9.69554561e-01
  9.69554561e-01  2.28813396e+00  3.55581659e+00  3.55581659e+00
  8.74130373e+00  1.12517890e+01  1.12517890e+01  3.24792425e+01
  1.02621408e+02  1.02621408e+02  1.15815452e+02  3.94402466e+02]
beta-B3u nocc = 0
   mo_energy = [-3.82357058e-01 -5.88269381e-02  4.22647200e-01  9.69554561e-01
  9.69554561e-01  2.28813396e+00  3.55581659e+00  3.55581659e+00
  8.74130373e+00  1.12517890e+01  1.12517890e+01  3.24792425e+01
  1.02621408e+02  1.02621408e+02  1.15815452e+02  3.94402466e+02]
multiplicity <S^2> = 3.7555631  2S+1 = 4.0027806
E1 = -98.46718445310034  Ecoul = 24.091380355702743
cycle= 79 E= -74.3758040973976  delta_E= -2.84e-14  |g|= 7.73e-13  |ddm|= 5.78e-13
    CPU time for cycle= 79      0.34 sec, wall time      0.09 sec
diis-norm(errvec)=7.26571e-13
Linear dependence found in DIIS error vectors.
diis-c [-2.89052492e-16  1.25000000e-01  1.25000000e-01  1.25000000e-01
  1.25000000e-01  1.25000000e-01  1.25000000e-01  1.25000000e-01
  1.25000000e-01]
alpha HOMO (B3u) = -1.33060169931383  LUMO (Ag) = -0.134140522313481
alpha irrep_nelec = [2, 0, 0, 0, 0, 1, 1, 1]
beta  irrep_nelec = [2, 0, 0, 0, 0, 0, 0, 0]
alpha-Ag nocc = 2  HOMO = -2.07173445066428  LUMO = -0.134140522313481
   mo_energy = [-2.14113143e+01 -2.07173445e+00 -1.34140522e-01  1.65894720e-01
  1.65894720e-01  4.73193171e-01  1.03841649e+00  1.03841649e+00
  3.14736575e+00  3.15829269e+00  3.15829269e+00  3.15829269e+00
  3.65508841e+00  3.65508841e+00  9.94644476e+00  9.94644476e+00
  9.94644476e+00  1.18673126e+01  1.18673126e+01  1.56807730e+01
  4.62801069e+01  4.62801069e+01  6.22859913e+01  1.97824260e+02
  1.97824260e+02  2.14905960e+02  8.93742285e+02]
alpha-B1g nocc = 0
   mo_energy = [1.65894720e-01 1.03841649e+00 3.15829269e+00 3.15829269e+00
 3.65508841e+00 9.94644476e+00 9.94644476e+00 1.18673126e+01
 4.62801069e+01 1.97824260e+02]
alpha-B2g nocc = 0
   mo_energy = [1.65894720e-01 1.03841649e+00 3.15829269e+00 3.15829269e+00
 3.65508841e+00 9.94644476e+00 9.94644476e+00 1.18673126e+01
 4.62801069e+01 1.97824260e+02]
alpha-B3g nocc = 0
   mo_energy = [1.65894720e-01 1.03841649e+00 3.15829269e+00 3.15829269e+00
 3.65508841e+00 9.94644476e+00 9.94644476e+00 1.18673126e+01
 4.62801069e+01 1.97824260e+02]
alpha-Au nocc = 0
   mo_energy = [  0.95740106   3.48194628  11.11610867 102.57237485]
alpha-B1u nocc = 1  HOMO = -1.33060169931383  LUMO = -0.0846962877082986
   mo_energy = [-1.33060170e+00 -8.46962877e-02  3.22331550e-01  9.57401063e-01
  9.57401063e-01  2.11116705e+00  3.48194628e+00  3.48194628e+00
  8.58643070e+00  1.11161087e+01  1.11161087e+01  3.23971017e+01
  1.02572375e+02  1.02572375e+02  1.15786251e+02  3.94394300e+02]
alpha-B2u nocc = 1  HOMO = -1.33060169931383  LUMO = -0.0846962877082948
   mo_energy = [-1.33060170e+00 -8.46962877e-02  3.22331550e-01  9.57401063e-01
  9.57401063e-01  2.11116705e+00  3.48194628e+00  3.48194628e+00
  8.58643070e+00  1.11161087e+01  1.11161087e+01  3.23971017e+01
  1.02572375e+02  1.02572375e+02  1.15786251e+02  3.94394300e+02]
alpha-B3u nocc = 1  HOMO = -1.33060169931383  LUMO = -0.0846962877083119
   mo_energy = [-1.33060170e+00 -8.46962877e-02  3.22331550e-01  9.57401063e-01
  9.57401063e-01  2.11116705e+00  3.48194628e+00  3.48194628e+00
  8.58643070e+00  1.11161087e+01  1.11161087e+01  3.23971017e+01
  1.02572375e+02  1.02572375e+02  1.15786251e+02  3.94394300e+02]
beta-Ag nocc = 2  HOMO = -1.53092224471871  LUMO = -0.11666665655436
   mo_energy = [-2.12786476e+01 -1.53092224e+00 -1.16666657e-01  1.81333926e-01
  1.81333926e-01  5.38465208e-01  1.14260465e+00  1.14260465e+00
  3.18093958e+00  3.18093958e+00  3.18093958e+00  3.28643818e+00
  3.85389478e+00  3.85389478e+00  1.00226571e+01  1.00226571e+01
  1.00226571e+01  1.20390252e+01  1.20390252e+01  1.57982239e+01
  4.63600737e+01  4.63600737e+01  6.23345797e+01  1.97843732e+02
  1.97843732e+02  2.14921298e+02  8.93746623e+02]
beta-B1g nocc = 0
   mo_energy = [1.81333926e-01 1.14260465e+00 3.18093958e+00 3.18093958e+00
 3.85389478e+00 1.00226571e+01 1.00226571e+01 1.20390252e+01
 4.63600737e+01 1.97843732e+02]
beta-B2g nocc = 0
   mo_energy = [1.81333926e-01 1.14260465e+00 3.18093958e+00 3.18093958e+00
 3.85389478e+00 1.00226571e+01 1.00226571e+01 1.20390252e+01
 4.63600737e+01 1.97843732e+02]
beta-B3g nocc = 0
   mo_energy = [1.81333926e-01 1.14260465e+00 3.18093958e+00 3.18093958e+00
 3.85389478e+00 1.00226571e+01 1.00226571e+01 1.20390252e+01
 4.63600737e+01 1.97843732e+02]
beta-Au nocc = 0
   mo_energy = [  0.96955456   3.55581659  11.25178897 102.62140764]
beta-B1u nocc = 0
   mo_energy = [-3.82357058e-01 -5.88269381e-02  4.22647200e-01  9.69554561e-01
  9.69554561e-01  2.28813396e+00  3.55581659e+00  3.55581659e+00
  8.74130373e+00  1.12517890e+01  1.12517890e+01  3.24792425e+01
  1.02621408e+02  1.02621408e+02  1.15815452e+02  3.94402466e+02]
beta-B2u nocc = 0
   mo_energy = [-3.82357058e-01 -5.88269381e-02  4.22647200e-01  9.69554561e-01
  9.69554561e-01  2.28813396e+00  3.55581659e+00  3.55581659e+00
  8.74130373e+00  1.12517890e+01  1.12517890e+01  3.24792425e+01
  1.02621408e+02  1.02621408e+02  1.15815452e+02  3.94402466e+02]
beta-B3u nocc = 0
   mo_energy = [-3.82357058e-01 -5.88269381e-02  4.22647200e-01  9.69554561e-01
  9.69554561e-01  2.28813396e+00  3.55581659e+00  3.55581659e+00
  8.74130373e+00  1.12517890e+01  1.12517890e+01  3.24792425e+01
  1.02621408e+02  1.02621408e+02  1.15815452e+02  3.94402466e+02]
multiplicity <S^2> = 3.7555631  2S+1 = 4.0027806
E1 = -98.46718445310029  Ecoul = 24.091380355702707
cycle= 80 E= -74.3758040973976  delta_E= 2.84e-14  |g|= 8.61e-13  |ddm|= 7.32e-14
    CPU time for cycle= 80      0.33 sec, wall time      0.08 sec
alpha HOMO (B2u) = -1.33060169931383  LUMO (Ag) = -0.134140522313481
alpha irrep_nelec = [2, 0, 0, 0, 0, 1, 1, 1]
beta  irrep_nelec = [2, 0, 0, 0, 0, 0, 0, 0]
alpha-Ag nocc = 2  HOMO = -2.07173445066427  LUMO = -0.134140522313481
   mo_energy = [-2.14113143e+01 -2.07173445e+00 -1.34140522e-01  1.65894720e-01
  1.65894720e-01  4.73193171e-01  1.03841649e+00  1.03841649e+00
  3.14736575e+00  3.15829269e+00  3.15829269e+00  3.15829269e+00
  3.65508841e+00  3.65508841e+00  9.94644476e+00  9.94644476e+00
  9.94644476e+00  1.18673126e+01  1.18673126e+01  1.56807730e+01
  4.62801069e+01  4.62801069e+01  6.22859913e+01  1.97824260e+02
  1.97824260e+02  2.14905960e+02  8.93742285e+02]
alpha-B1g nocc = 0
   mo_energy = [1.65894720e-01 1.03841649e+00 3.15829269e+00 3.15829269e+00
 3.65508841e+00 9.94644476e+00 9.94644476e+00 1.18673126e+01
 4.62801069e+01 1.97824260e+02]
alpha-B2g nocc = 0
   mo_energy = [1.65894720e-01 1.03841649e+00 3.15829269e+00 3.15829269e+00
 3.65508841e+00 9.94644476e+00 9.94644476e+00 1.18673126e+01
 4.62801069e+01 1.97824260e+02]
alpha-B3g nocc = 0
   mo_energy = [1.65894720e-01 1.03841649e+00 3.15829269e+00 3.15829269e+00
 3.65508841e+00 9.94644476e+00 9.94644476e+00 1.18673126e+01
 4.62801069e+01 1.97824260e+02]
alpha-Au nocc = 0
   mo_energy = [  0.95740106   3.48194628  11.11610867 102.57237485]
alpha-B1u nocc = 1  HOMO = -1.33060169931384  LUMO = -0.0846962877083287
   mo_energy = [-1.33060170e+00 -8.46962877e-02  3.22331550e-01  9.57401063e-01
  9.57401063e-01  2.11116705e+00  3.48194628e+00  3.48194628e+00
  8.58643070e+00  1.11161087e+01  1.11161087e+01  3.23971017e+01
  1.02572375e+02  1.02572375e+02  1.15786251e+02  3.94394300e+02]
alpha-B2u nocc = 1  HOMO = -1.33060169931383  LUMO = -0.084696287708312
   mo_energy = [-1.33060170e+00 -8.46962877e-02  3.22331550e-01  9.57401063e-01
  9.57401063e-01  2.11116705e+00  3.48194628e+00  3.48194628e+00
  8.58643070e+00  1.11161087e+01  1.11161087e+01  3.23971017e+01
  1.02572375e+02  1.02572375e+02  1.15786251e+02  3.94394300e+02]
alpha-B3u nocc = 1  HOMO = -1.33060169931383  LUMO = -0.0846962877083222
   mo_energy = [-1.33060170e+00 -8.46962877e-02  3.22331550e-01  9.57401063e-01
  9.57401063e-01  2.11116705e+00  3.48194628e+00  3.48194628e+00
  8.58643070e+00  1.11161087e+01  1.11161087e+01  3.23971017e+01
  1.02572375e+02  1.02572375e+02  1.15786251e+02  3.94394300e+02]
beta-Ag nocc = 2  HOMO = -1.5309222447187  LUMO = -0.116666656554359
   mo_energy = [-2.12786476e+01 -1.53092224e+00 -1.16666657e-01  1.81333926e-01
  1.81333926e-01  5.38465208e-01  1.14260465e+00  1.14260465e+00
  3.18093958e+00  3.18093958e+00  3.18093958e+00  3.28643818e+00
  3.85389478e+00  3.85389478e+00  1.00226571e+01  1.00226571e+01
  1.00226571e+01  1.20390252e+01  1.20390252e+01  1.57982239e+01
  4.63600737e+01  4.63600737e+01  6.23345797e+01  1.97843732e+02
  1.97843732e+02  2.14921298e+02  8.93746623e+02]
beta-B1g nocc = 0
   mo_energy = [1.81333926e-01 1.14260465e+00 3.18093958e+00 3.18093958e+00
 3.85389478e+00 1.00226571e+01 1.00226571e+01 1.20390252e+01
 4.63600737e+01 1.97843732e+02]
beta-B2g nocc = 0
   mo_energy = [1.81333926e-01 1.14260465e+00 3.18093958e+00 3.18093958e+00
 3.85389478e+00 1.00226571e+01 1.00226571e+01 1.20390252e+01
 4.63600737e+01 1.97843732e+02]
beta-B3g nocc = 0
   mo_energy = [1.81333926e-01 1.14260465e+00 3.18093958e+00 3.18093958e+00
 3.85389478e+00 1.00226571e+01 1.00226571e+01 1.20390252e+01
 4.63600737e+01 1.97843732e+02]
beta-Au nocc = 0
   mo_energy = [  0.96955456   3.55581659  11.25178897 102.62140764]
beta-B1u nocc = 0
   mo_energy = [-3.82357058e-01 -5.88269381e-02  4.22647200e-01  9.69554561e-01
  9.69554561e-01  2.28813396e+00  3.55581659e+00  3.55581659e+00
  8.74130373e+00  1.12517890e+01  1.12517890e+01  3.24792425e+01
  1.02621408e+02  1.02621408e+02  1.15815452e+02  3.94402466e+02]
beta-B2u nocc = 0
   mo_energy = [-3.82357058e-01 -5.88269381e-02  4.22647200e-01  9.69554561e-01
  9.69554561e-01  2.28813396e+00  3.55581659e+00  3.55581659e+00
  8.74130373e+00  1.12517890e+01  1.12517890e+01  3.24792425e+01
  1.02621408e+02  1.02621408e+02  1.15815452e+02  3.94402466e+02]
beta-B3u nocc = 0
   mo_energy = [-3.82357058e-01 -5.88269381e-02  4.22647200e-01  9.69554561e-01
  9.69554561e-01  2.28813396e+00  3.55581659e+00  3.55581659e+00
  8.74130373e+00  1.12517890e+01  1.12517890e+01  3.24792425e+01
  1.02621408e+02  1.02621408e+02  1.15815452e+02  3.94402466e+02]
multiplicity <S^2> = 3.7555631  2S+1 = 4.0027806
E1 = -98.46718445310034  Ecoul = 24.091380355702757
Extra cycle  E= -74.3758040973976  delta_E= -1.42e-14  |g|= 7.44e-13  |ddm|= 7.32e-14
    CPU time for scf_cycle     31.37 sec, wall time      8.25 sec
    CPU time for SCF     31.38 sec, wall time      8.28 sec
converged SCF energy = -74.3758040973976  <S^2> = 3.7555631  2S+1 = 4.0027806
