#INFO: **** input file is /lustre06/project/6058907/jaafar1/PySCF-MRCC/Oxygen/Cation/+1/AE/aCV6Z/CC-5/input.py ****
import pyscf
from pyscf import cc, lib, tools, scf, symm, ao2mo
from pyscf.gto.basis import parse_gaussian
from pyscf.cc.mrcc import MRCCInterface

name = 'out'
mol = pyscf.M(
    atom = '''
        O
    ''',
    unit = 'angstrom',
    basis = {
            'O' : parse_gaussian.load('O-aCV6Z-MOLP.gbs', 'O')
    },
    charge = 1,
    spin = 3,
    symmetry = True,
    verbose = 9,
    symmetry_subgroup = 'D2h',
    output = name +'.txt',
    max_memory = 64000,
)
mf = mol.UHF().set(conv_tol=1e-9,max_cycle=9999,ddm_tol=1e-11,direct_scf_tol=1e-11,chkfile=name+'.chk',init_guess='atom',irrep_nelec={'Ag': 4, 'B3u':1 , 'B2u':1 ,'B1u':1 })
mf.kernel()

#pyscf.tools.fcidump.from_chkfile_uhf('FCIdump',name+'.chk',tol=1e-18, float_format='% 0.20E',molpro_orbsym=False,orbsym=None)
pyscf.tools.fcidump.from_scf_uhf(mf,'fort.55',tol=1e-18, float_format='% 0.20E',molpro_orbsym=False)

#MRCCInterface.run_mrcc(mf, fort_file='fort.55', mrcc_input_file='MINP', tol=1e-18, float_format='% 0.20E', molpro_orbsym=False)
#INFO: ******************** input file end ********************


System: uname_result(system='Linux', node='nc10144.narval.calcul.quebec', release='4.18.0-553.40.1.el8_10.x86_64', version='#1 SMP Thu Feb 13 13:28:49 UTC 2025', machine='x86_64')  Threads 4
Python 3.12.4 (main, Jun  7 2024, 23:47:47) [GCC 13.3.0]
numpy 2.1.1  scipy 1.14.1  h5py 3.12.0
Date: Sat Feb 15 02:29:28 2025
PySCF version 2.7.0
PySCF path  /home/jaafar1/projects/def-nike-ab/jaafar1/VENV/MRCCInterface/lib/python3.12/site-packages/pyscf

[CONFIG] ARGPARSE = False
[CONFIG] DEBUG = False
[CONFIG] MAX_MEMORY = 4000
[CONFIG] TMPDIR = /tmp
[CONFIG] UNIT = angstrom
[CONFIG] VERBOSE = 3
[CONFIG] conf_file = None
[INPUT] verbose = 9
[INPUT] max_memory = 64000 
[INPUT] num. atoms = 1
[INPUT] num. electrons = 7
[INPUT] charge = 1
[INPUT] spin (= nelec alpha-beta = 2S) = 3
[INPUT] symmetry True subgroup D2h
[INPUT] Mole.unit = angstrom
[INPUT] Symbol           X                Y                Z      unit          X                Y                Z       unit  Magmom
[INPUT]  1 O      0.000000000000   0.000000000000   0.000000000000 AA    0.000000000000   0.000000000000   0.000000000000 Bohr   0.0
[INPUT] ---------------- BASIS SET ---------------- 
[INPUT] l, kappa, [nprim/nctr], expnt,             c_1 c_2 ...
[INPUT] O
[INPUT] 0    0    [1    /1   ]  317.096              1
[INPUT] 0    0    [1    /1   ]  160.393              1
[INPUT] 0    0    [1    /1   ]  81.129               1
[INPUT] 0    0    [1    /1   ]  41.037               1
[INPUT] 0    0    [1    /1   ]  20.757               1
[INPUT] 0    0    [16   /2   ]  570800            6e-06 -1e-06
                                85480             4.3e-05 -1e-05
                                19460             0.000227 -5.1e-05
                                5512              0.000956 -0.000217
                                1798              0.003473 -0.000792
                                648.9             0.011198 -0.002559
                                253.1             0.032388 -0.007533
                                104.9             0.08286 -0.019789
                                45.65             0.179584 -0.046063
                                20.62             0.305221 -0.089196
                                9.587             0.340893 -0.137542
                                4.493             0.177426 -0.105119
                                1.837             0.020491 0.144771
                                0.8349            -0.000968 0.441463
                                0.3658            0.001057 0.444681
                                0.157             -9.7e-05 0.128243
[INPUT] 0    0    [1    /1   ]  4.493                1
[INPUT] 0    0    [1    /1   ]  1.837                1
[INPUT] 0    0    [1    /1   ]  0.8349               1
[INPUT] 0    0    [1    /1   ]  0.3658               1
[INPUT] 0    0    [1    /1   ]  0.157                1
[INPUT] 0    0    [1    /1   ]  0.05935              1
[INPUT] 1    0    [1    /1   ]  358.911              1
[INPUT] 1    0    [1    /1   ]  161.818              1
[INPUT] 1    0    [1    /1   ]  72.957               1
[INPUT] 1    0    [1    /1   ]  32.893               1
[INPUT] 1    0    [1    /1   ]  14.83                1
[INPUT] 1    0    [1    /1   ]  2.732                1
[INPUT] 1    0    [1    /1   ]  1.227                1
[INPUT] 1    0    [10   /1   ]  525.6             0.000167
                                124.6             0.001433
                                40.34             0.007548
                                15.18             0.028595
                                6.245             0.084389
                                2.732             0.187483
                                1.227             0.297906
                                0.5492            0.338558
                                0.2418            0.247261
                                0.1025            0.070033
[INPUT] 1    0    [1    /1   ]  0.5492               1
[INPUT] 1    0    [1    /1   ]  0.2418               1
[INPUT] 1    0    [1    /1   ]  0.1025               1
[INPUT] 2    0    [1    /1   ]  250.83               1
[INPUT] 2    0    [1    /1   ]  108.163              1
[INPUT] 2    0    [1    /1   ]  46.642               1
[INPUT] 2    0    [1    /1   ]  20.113               1
[INPUT] 2    0    [1    /1   ]  8.253                1
[INPUT] 2    0    [1    /1   ]  3.597                1
[INPUT] 2    0    [1    /1   ]  1.568                1
[INPUT] 2    0    [1    /1   ]  0.684                1
[INPUT] 2    0    [1    /1   ]  0.298                1
[INPUT] 3    0    [1    /1   ]  136.111              1
[INPUT] 3    0    [1    /1   ]  48.855               1
[INPUT] 3    0    [1    /1   ]  17.536               1
[INPUT] 3    0    [1    /1   ]  5.43                 1
[INPUT] 3    0    [1    /1   ]  2.416                1
[INPUT] 3    0    [1    /1   ]  1.075                1
[INPUT] 3    0    [1    /1   ]  0.478                1
[INPUT] 4    0    [1    /1   ]  81.628               1
[INPUT] 4    0    [1    /1   ]  24.065               1
[INPUT] 4    0    [1    /1   ]  5.211                1
[INPUT] 4    0    [1    /1   ]  2.19                 1
[INPUT] 4    0    [1    /1   ]  0.92                 1
[INPUT] 5    0    [1    /1   ]  62.85                1
[INPUT] 5    0    [1    /1   ]  3.872                1
[INPUT] 5    0    [1    /1   ]  1.505                1
[INPUT] 6    0    [1    /1   ]  2.773                1

nuclear repulsion = 0
point group symmetry = SO3, use subgroup D2h
symmetry origin: [0. 0. 0.]
symmetry axis x: [1. 0. 0.]
symmetry axis y: [0. 1. 0.]
symmetry axis z: [0. 0. 1.]
num. orbitals of irrep Ag = 50
num. orbitals of irrep B1g = 22
num. orbitals of irrep B2g = 22
num. orbitals of irrep B3g = 22
num. orbitals of irrep Au = 13
num. orbitals of irrep B1u = 34
num. orbitals of irrep B2u = 34
num. orbitals of irrep B3u = 34
number of shells = 48
number of NR pGTOs = 272
number of NR cGTOs = 231
basis = {'O': [[0, [317.096, 1.0]], [0, [160.393, 1.0]], [0, [81.129, 1.0]], [0, [41.037, 1.0]], [0, [20.757, 1.0]], [0, [570800.0, 6e-06, -1e-06], [85480.0, 4.3e-05, -1e-05], [19460.0, 0.000227, -5.1e-05], [5512.0, 0.000956, -0.000217], [1798.0, 0.003473, -0.000792], [648.9, 0.011198, -0.002559], [253.1, 0.032388, -0.007533], [104.9, 0.08286, -0.019789], [45.65, 0.179584, -0.046063], [20.62, 0.305221, -0.089196], [9.587, 0.340893, -0.137542], [4.493, 0.177426, -0.105119], [1.837, 0.020491, 0.144771], [0.8349, -0.000968, 0.441463], [0.3658, 0.001057, 0.444681], [0.157, -9.7e-05, 0.128243]], [0, [4.493, 1.0]], [0, [1.837, 1.0]], [0, [0.8349, 1.0]], [0, [0.3658, 1.0]], [0, [0.157, 1.0]], [0, [0.05935, 1.0]], [1, [358.911, 1.0]], [1, [161.818, 1.0]], [1, [72.957, 1.0]], [1, [32.893, 1.0]], [1, [14.83, 1.0]], [1, [2.732, 1.0]], [1, [1.227, 1.0]], [1, [525.6, 0.000167], [124.6, 0.001433], [40.34, 0.007548], [15.18, 0.028595], [6.245, 0.084389], [2.732, 0.187483], [1.227, 0.297906], [0.5492, 0.338558], [0.2418, 0.247261], [0.1025, 0.070033]], [1, [0.5492, 1.0]], [1, [0.2418, 1.0]], [1, [0.1025, 1.0]], [2, [250.83, 1.0]], [2, [108.163, 1.0]], [2, [46.642, 1.0]], [2, [20.113, 1.0]], [2, [8.253, 1.0]], [2, [3.597, 1.0]], [2, [1.568, 1.0]], [2, [0.684, 1.0]], [2, [0.298, 1.0]], [3, [136.111, 1.0]], [3, [48.855, 1.0]], [3, [17.536, 1.0]], [3, [5.43, 1.0]], [3, [2.416, 1.0]], [3, [1.075, 1.0]], [3, [0.478, 1.0]], [4, [81.628, 1.0]], [4, [24.065, 1.0]], [4, [5.211, 1.0]], [4, [2.19, 1.0]], [4, [0.92, 1.0]], [5, [62.85, 1.0]], [5, [3.872, 1.0]], [5, [1.505, 1.0]], [6, [2.773, 1.0]]]}
ecp = {}
bas 0, expnt(s) = [317.096]
bas 1, expnt(s) = [160.393]
bas 2, expnt(s) = [81.129]
bas 3, expnt(s) = [41.037]
bas 4, expnt(s) = [20.757]
bas 5, expnt(s) = [5.708e+05 8.548e+04 1.946e+04 5.512e+03 1.798e+03 6.489e+02 2.531e+02
 1.049e+02 4.565e+01 2.062e+01 9.587e+00 4.493e+00 1.837e+00 8.349e-01
 3.658e-01 1.570e-01]
bas 6, expnt(s) = [4.493]
bas 7, expnt(s) = [1.837]
bas 8, expnt(s) = [0.8349]
bas 9, expnt(s) = [0.3658]
bas 10, expnt(s) = [0.157]
bas 11, expnt(s) = [0.05935]
bas 12, expnt(s) = [358.911]
bas 13, expnt(s) = [161.818]
bas 14, expnt(s) = [72.957]
bas 15, expnt(s) = [32.893]
bas 16, expnt(s) = [14.83]
bas 17, expnt(s) = [2.732]
bas 18, expnt(s) = [1.227]
bas 19, expnt(s) = [5.256e+02 1.246e+02 4.034e+01 1.518e+01 6.245e+00 2.732e+00 1.227e+00
 5.492e-01 2.418e-01 1.025e-01]
bas 20, expnt(s) = [0.5492]
bas 21, expnt(s) = [0.2418]
bas 22, expnt(s) = [0.1025]
bas 23, expnt(s) = [250.83]
bas 24, expnt(s) = [108.163]
bas 25, expnt(s) = [46.642]
bas 26, expnt(s) = [20.113]
bas 27, expnt(s) = [8.253]
bas 28, expnt(s) = [3.597]
bas 29, expnt(s) = [1.568]
bas 30, expnt(s) = [0.684]
bas 31, expnt(s) = [0.298]
bas 32, expnt(s) = [136.111]
bas 33, expnt(s) = [48.855]
bas 34, expnt(s) = [17.536]
bas 35, expnt(s) = [5.43]
bas 36, expnt(s) = [2.416]
bas 37, expnt(s) = [1.075]
bas 38, expnt(s) = [0.478]
bas 39, expnt(s) = [81.628]
bas 40, expnt(s) = [24.065]
bas 41, expnt(s) = [5.211]
bas 42, expnt(s) = [2.19]
bas 43, expnt(s) = [0.92]
bas 44, expnt(s) = [62.85]
bas 45, expnt(s) = [3.872]
bas 46, expnt(s) = [1.505]
bas 47, expnt(s) = [2.773]
CPU time:         0.99
arg.atm = [[ 8 20  1 23  0  0]]
arg.bas = [[  0   0   1   1   0  24  25   0]
 [  0   0   1   1   0  26  27   0]
 [  0   0   1   1   0  28  29   0]
 [  0   0   1   1   0  30  31   0]
 [  0   0   1   1   0  32  33   0]
 [  0   0  16   2   0  34  50   0]
 [  0   0   1   1   0  82  83   0]
 [  0   0   1   1   0  84  85   0]
 [  0   0   1   1   0  86  87   0]
 [  0   0   1   1   0  88  89   0]
 [  0   0   1   1   0  90  91   0]
 [  0   0   1   1   0  92  93   0]
 [  0   1   1   1   0  94  95   0]
 [  0   1   1   1   0  96  97   0]
 [  0   1   1   1   0  98  99   0]
 [  0   1   1   1   0 100 101   0]
 [  0   1   1   1   0 102 103   0]
 [  0   1   1   1   0 104 105   0]
 [  0   1   1   1   0 106 107   0]
 [  0   1  10   1   0 108 118   0]
 [  0   1   1   1   0 128 129   0]
 [  0   1   1   1   0 130 131   0]
 [  0   1   1   1   0 132 133   0]
 [  0   2   1   1   0 134 135   0]
 [  0   2   1   1   0 136 137   0]
 [  0   2   1   1   0 138 139   0]
 [  0   2   1   1   0 140 141   0]
 [  0   2   1   1   0 142 143   0]
 [  0   2   1   1   0 144 145   0]
 [  0   2   1   1   0 146 147   0]
 [  0   2   1   1   0 148 149   0]
 [  0   2   1   1   0 150 151   0]
 [  0   3   1   1   0 152 153   0]
 [  0   3   1   1   0 154 155   0]
 [  0   3   1   1   0 156 157   0]
 [  0   3   1   1   0 158 159   0]
 [  0   3   1   1   0 160 161   0]
 [  0   3   1   1   0 162 163   0]
 [  0   3   1   1   0 164 165   0]
 [  0   4   1   1   0 166 167   0]
 [  0   4   1   1   0 168 169   0]
 [  0   4   1   1   0 170 171   0]
 [  0   4   1   1   0 172 173   0]
 [  0   4   1   1   0 174 175   0]
 [  0   5   1   1   0 176 177   0]
 [  0   5   1   1   0 178 179   0]
 [  0   5   1   1   0 180 181   0]
 [  0   6   1   1   0 182 183   0]]
arg.env = [ 0.00000000e+00  0.00000000e+00  0.00000000e+00  0.00000000e+00
  0.00000000e+00  0.00000000e+00  0.00000000e+00  0.00000000e+00
  0.00000000e+00  0.00000000e+00  0.00000000e+00  0.00000000e+00
  0.00000000e+00  0.00000000e+00  0.00000000e+00  0.00000000e+00
  0.00000000e+00  0.00000000e+00  0.00000000e+00  0.00000000e+00
  0.00000000e+00  0.00000000e+00  0.00000000e+00  0.00000000e+00
  3.17096000e+02  1.89848905e+02  1.60393000e+02  1.13868626e+02
  8.11290000e+01  6.82962906e+01  4.10370000e+01  4.09634690e+01
  2.07570000e+01  2.45690556e+01  5.70800000e+05  8.54800000e+04
  1.94600000e+04  5.51200000e+03  1.79800000e+03  6.48900000e+02
  2.53100000e+02  1.04900000e+02  4.56500000e+01  2.06200000e+01
  9.58700000e+00  4.49300000e+00  1.83700000e+00  8.34900000e-01
  3.65800000e-01  1.57000000e-01  3.14796090e-01  5.43102681e-01
  9.44926634e-01  1.54509400e+00  2.42276982e+00  3.63738189e+00
  5.19240244e+00  6.86185681e+00  7.96825701e+00  7.46184138e+00
  4.69240226e+00  1.38335831e+00  8.16883505e-02 -2.13607408e-03
  1.25609611e-03 -6.11239736e-05 -5.24660311e-02 -1.26302988e-01
 -2.12296357e-01 -3.50717050e-01 -5.52500513e-01 -8.31225495e-01
 -1.20768123e+00 -1.63878018e+00 -2.04384541e+00 -2.18060555e+00
 -1.89327029e+00 -8.19594006e-01  5.77136685e-01  9.74171444e-01
  5.28441100e-01  8.08115891e-02  4.49300000e+00  7.79681695e+00
  1.83700000e+00  3.98654703e+00  8.34900000e-01  2.20668768e+00
  3.65800000e-01  1.18835938e+00  1.57000000e-01  6.30143939e-01
  5.93500000e-02  3.03794961e-01  3.58911000e+02  4.55740741e+03
  1.61818000e+02  1.68371247e+03  7.29570000e+01  6.22039698e+02
  3.28930000e+01  2.29807262e+02  1.48300000e+01  8.49006141e+01
  2.73200000e+00  1.02467293e+01  1.22700000e+00  3.76738580e+00
  5.25600000e+02  1.24600000e+02  4.03400000e+01  1.51800000e+01
  6.24500000e+00  2.73200000e+00  1.22700000e+00  5.49200000e-01
  2.41800000e-01  1.02500000e-01  1.22608296e+00  1.74031528e+00
  2.23864871e+00  2.49956253e+00  2.43044381e+00  1.92108665e+00
  1.12232631e+00  4.66960808e-01  1.22309498e-01  1.18492743e-02
  5.49200000e-01  1.37926448e+00  2.41800000e-01  4.94657688e-01
  1.02500000e-01  1.69195662e-01  2.50830000e+02  4.12518541e+04
  1.08163000e+02  9.46601424e+03  4.66420000e+01  2.17214806e+03
  2.01130000e+01  4.98441139e+02  8.25300000e+00  1.04857649e+02
  3.59700000e+00  2.45146192e+01  1.56800000e+00  5.73304021e+00
  6.84000000e-01  1.34238646e+00  2.98000000e-01  3.13622959e-01
  1.36111000e+02  1.24815959e+05  4.88550000e+01  1.24467410e+04
  1.75360000e+01  1.24123516e+03  5.43000000e+00  8.87789447e+01
  2.41600000e+00  1.43541822e+01  1.07500000e+00  2.32102280e+00
  4.78000000e-01  3.74734026e-01  8.16280000e+01  2.37945108e+05
  2.40650000e+01  8.27428040e+03  5.21100000e+00  1.23155001e+02
  2.19000000e+00  1.13537785e+01  9.20000000e-01  1.04552790e+00
  6.28500000e+01  5.54300056e+05  3.87200000e+00  6.45717622e+01
  1.50500000e+00  2.99396267e+00  2.77300000e+00  2.01545491e+01]
ecpbas  = []


******** <class 'pyscf.scf.uhf_symm.SymAdaptedUHF'> ********
method = SymAdaptedUHF
initial guess = atom
damping factor = 0
level_shift factor = 0
DIIS = <class 'pyscf.scf.diis.CDIIS'>
diis_start_cycle = 1
diis_space = 8
diis_damp = 0
SCF conv_tol = 1e-09
SCF conv_tol_grad = None
SCF ddm_tol = 1e-11
SCF max_cycles = 9999
direct_scf = True
direct_scf_tol = 1e-11
chkfile to save SCF result = out.chk
max_memory 64000 MB (current use 90 MB)
number electrons alpha = 5  beta = 2
irrep_nelec {'Ag': 4, 'B3u': 1, 'B2u': 1, 'B1u': 1}
Freeze 7 electrons in irreps ['Ag', 'B3u', 'B2u', 'B1u']
    0 free electrons in irreps B1g B2g B3g Au
cond(S) = 13610821.409334904
Set gradient conv threshold to 3.16228e-05
Spherically averaged atomic HF for {'O'}


******** <class 'pyscf.scf.atom_hf.AtomSphAverageRHF'> ********
method = AtomSphAverageRHF
initial guess = minao
damping factor = 0
level_shift factor = 0
DIIS = <class 'pyscf.scf.diis.CDIIS'>
diis_start_cycle = 1
diis_space = 8
diis_damp = 0
SCF conv_tol = 1e-09
SCF conv_tol_grad = None
SCF ddm_tol = 1e-10
SCF max_cycles = 50
direct_scf = True
direct_scf_tol = 1e-13
chkfile to save SCF result = /tmp/tmpa5o52p5l
max_memory 64000 MB (current use 92 MB)
atom = O
Set gradient conv threshold to 3.16228e-05
Initial guess from minao.
Nelec from initial guess = 7.999733486016561
E1 = -103.09133086640115  E_coul = 28.805710005478957
init E= -74.2856208609222
l = 0  e_0 = -20.7015061
l = 0  e_1 = -1.26313492
l = 0  e_2 = 0.104742457
l = 0  e_3 = 0.58376011
l = 0  e_4 = 2.04653661
l = 0  e_5 = 6.08760175
l = 0  e_6 = 17.1788679
l = 0  e_7 = 45.6507191
l = 0  e_8 = 111.897867
l = 0  e_9 = 256.098423
l = 0  e_10 = 567.607453
l = 0  e_11 = 1269.31419
l = 0  e_12 = 4066.61898
l = 1  e_0 = -0.391072864
l = 1  e_1 = 0.25957743
l = 1  e_2 = 1.0300824
l = 1  e_3 = 2.89612108
l = 1  e_4 = 7.31462295
l = 1  e_5 = 18.0315576
l = 1  e_6 = 44.8077428
l = 1  e_7 = 110.180029
l = 1  e_8 = 264.505473
l = 1  e_9 = 632.037047
l = 1  e_10 = 1546.42582
l = 2  e_0 = 0.808799816
l = 2  e_1 = 2.34986737
l = 2  e_2 = 5.78248865
l = 2  e_3 = 13.7446446
l = 2  e_4 = 32.8078877
l = 2  e_5 = 80.3516653
l = 2  e_6 = 197.394761
l = 2  e_7 = 484.31628
l = 2  e_8 = 1222.25739
l = 3  e_0 = 1.83421353
l = 3  e_1 = 5.01489557
l = 3  e_2 = 11.8513348
l = 3  e_3 = 27.7456065
l = 3  e_4 = 78.3306227
l = 3  e_5 = 230.629136
l = 3  e_6 = 688.536416
l = 4  e_0 = 4.51911967
l = 4  e_1 = 12.3122573
l = 4  e_2 = 30.909181
l = 4  e_3 = 122.917093
l = 4  e_4 = 451.518472
l = 5  e_0 = 9.06224168
l = 5  e_1 = 25.7918753
l = 5  e_2 = 385.895822
l = 6  e_0 = 19.8856333
    CPU time for initialize scf     25.43 sec, wall time      7.16 sec
l = 0  e_0 = -20.7015061
l = 0  e_1 = -1.26313492
l = 0  e_2 = 0.104742457
l = 0  e_3 = 0.58376011
l = 0  e_4 = 2.04653661
l = 0  e_5 = 6.08760175
l = 0  e_6 = 17.1788679
l = 0  e_7 = 45.6507191
l = 0  e_8 = 111.897867
l = 0  e_9 = 256.098423
l = 0  e_10 = 567.607453
l = 0  e_11 = 1269.31419
l = 0  e_12 = 4066.61898
l = 1  e_0 = -0.391072864
l = 1  e_1 = 0.25957743
l = 1  e_2 = 1.0300824
l = 1  e_3 = 2.89612108
l = 1  e_4 = 7.31462295
l = 1  e_5 = 18.0315576
l = 1  e_6 = 44.8077428
l = 1  e_7 = 110.180029
l = 1  e_8 = 264.505473
l = 1  e_9 = 632.037047
l = 1  e_10 = 1546.42582
l = 2  e_0 = 0.808799816
l = 2  e_1 = 2.34986737
l = 2  e_2 = 5.78248865
l = 2  e_3 = 13.7446446
l = 2  e_4 = 32.8078877
l = 2  e_5 = 80.3516653
l = 2  e_6 = 197.394761
l = 2  e_7 = 484.31628
l = 2  e_8 = 1222.25739
l = 3  e_0 = 1.83421353
l = 3  e_1 = 5.01489557
l = 3  e_2 = 11.8513348
l = 3  e_3 = 27.7456065
l = 3  e_4 = 78.3306227
l = 3  e_5 = 230.629136
l = 3  e_6 = 688.536416
l = 4  e_0 = 4.51911967
l = 4  e_1 = 12.3122573
l = 4  e_2 = 30.909181
l = 4  e_3 = 122.917093
l = 4  e_4 = 451.518472
l = 5  e_0 = 9.06224168
l = 5  e_1 = 25.7918753
l = 5  e_2 = 385.895822
l = 6  e_0 = 19.8856333
l = 0  occ = 2 + 0
l = 1  occ = 0 + 1.333
l = 2  occ = 0 + 0
l = 3  occ = 0 + 0
E1 = -102.39171476234503  E_coul = 28.095851320120858
cycle= 1 E= -74.2958634422242  delta_E= -0.0102  |g|=    0  |ddm|= 1.06
    CPU time for cycle= 1      1.88 sec, wall time      0.47 sec
diis-norm(errvec)=0.135147
diis-c [-0.01826476  1.        ]
l = 0  e_0 = -20.8754651
l = 0  e_1 = -1.33206826
l = 0  e_2 = 0.101382222
l = 0  e_3 = 0.569863504
l = 0  e_4 = 2.01261756
l = 0  e_5 = 6.01969889
l = 0  e_6 = 17.0687369
l = 0  e_7 = 45.5060864
l = 0  e_8 = 111.731436
l = 0  e_9 = 255.918567
l = 0  e_10 = 567.417728
l = 0  e_11 = 1269.11454
l = 0  e_12 = 4066.40666
l = 1  e_0 = -0.446810748
l = 1  e_1 = 0.253893044
l = 1  e_2 = 1.00879856
l = 1  e_3 = 2.85033801
l = 1  e_4 = 7.23609535
l = 1  e_5 = 17.916089
l = 1  e_6 = 44.6601994
l = 1  e_7 = 110.011393
l = 1  e_8 = 264.323602
l = 1  e_9 = 631.845084
l = 1  e_10 = 1546.22332
l = 2  e_0 = 0.795991017
l = 2  e_1 = 2.31557377
l = 2  e_2 = 5.71998271
l = 2  e_3 = 13.6466546
l = 2  e_4 = 32.6748584
l = 2  e_5 = 80.1919292
l = 2  e_6 = 197.218683
l = 2  e_7 = 484.129136
l = 2  e_8 = 1222.05941
l = 3  e_0 = 1.82141566
l = 3  e_1 = 4.97539925
l = 3  e_2 = 11.7746493
l = 3  e_3 = 27.6270796
l = 3  e_4 = 78.1726103
l = 3  e_5 = 230.451621
l = 3  e_6 = 688.346269
l = 4  e_0 = 4.49459632
l = 4  e_1 = 12.2472317
l = 4  e_2 = 30.7953597
l = 4  e_3 = 122.751142
l = 4  e_4 = 451.334959
l = 5  e_0 = 9.02399264
l = 5  e_1 = 25.699949
l = 5  e_2 = 385.715995
l = 6  e_0 = 19.820977
l = 0  occ = 2 + 0
l = 1  occ = 0 + 1.333
l = 2  occ = 0 + 0
l = 3  occ = 0 + 0
E1 = -102.75799124214082  E_coul = 28.460887958937143
cycle= 2 E= -74.2971032832037  delta_E= -0.00124  |g|=    0  |ddm|= 0.0881
    CPU time for cycle= 2      1.88 sec, wall time      0.47 sec
diis-norm(errvec)=0.058475
diis-c [-3.10862185e-04  2.93833228e-01  7.06166772e-01]
l = 0  e_0 = -20.8110868
l = 0  e_1 = -1.30987237
l = 0  e_2 = 0.102501692
l = 0  e_3 = 0.574134069
l = 0  e_4 = 2.02390137
l = 0  e_5 = 6.04370648
l = 0  e_6 = 17.1088971
l = 0  e_7 = 45.5594611
l = 0  e_8 = 111.793084
l = 0  e_9 = 255.985265
l = 0  e_10 = 567.487933
l = 0  e_11 = 1269.18755
l = 0  e_12 = 4066.48204
l = 1  e_0 = -0.425537571
l = 1  e_1 = 0.256179303
l = 1  e_2 = 1.01693483
l = 1  e_3 = 2.867393
l = 1  e_4 = 7.26503267
l = 1  e_5 = 17.958572
l = 1  e_6 = 44.714556
l = 1  e_7 = 110.073721
l = 1  e_8 = 264.391013
l = 1  e_9 = 631.916074
l = 1  e_10 = 1546.29707
l = 2  e_0 = 0.800552719
l = 2  e_1 = 2.32814326
l = 2  e_2 = 5.74289104
l = 2  e_3 = 13.682795
l = 2  e_4 = 32.7240571
l = 2  e_5 = 80.2510275
l = 2  e_6 = 197.284041
l = 2  e_7 = 484.198736
l = 2  e_8 = 1222.1323
l = 3  e_0 = 1.82598163
l = 3  e_1 = 4.98967164
l = 3  e_2 = 11.8027484
l = 3  e_3 = 27.6708603
l = 3  e_4 = 78.2310367
l = 3  e_5 = 230.51758
l = 3  e_6 = 688.417076
l = 4  e_0 = 4.5033008
l = 4  e_1 = 12.2708971
l = 4  e_2 = 30.8373992
l = 4  e_3 = 122.812481
l = 4  e_4 = 451.40336
l = 5  e_0 = 9.0376245
l = 5  e_1 = 25.733745
l = 5  e_2 = 385.782791
l = 6  e_0 = 19.8444117
l = 0  occ = 2 + 0
l = 1  occ = 0 + 1.333
l = 2  occ = 0 + 0
l = 3  occ = 0 + 0
E1 = -102.62708139845552  E_coul = 28.329600515351036
cycle= 3 E= -74.2974808831045  delta_E= -0.000378  |g|=    0  |ddm|= 0.0268
    CPU time for cycle= 3      1.88 sec, wall time      0.47 sec
diis-norm(errvec)=0.00671669
diis-c [-2.16656416e-06 -9.48843429e-02 -1.01764588e-01  1.19664893e+00]
l = 0  e_0 = -20.8145192
l = 0  e_1 = -1.31203622
l = 0  e_2 = 0.102379271
l = 0  e_3 = 0.57365748
l = 0  e_4 = 2.02295789
l = 0  e_5 = 6.04213902
l = 0  e_6 = 17.1065833
l = 0  e_7 = 45.5565242
l = 0  e_8 = 111.789814
l = 0  e_9 = 255.981945
l = 0  e_10 = 567.484761
l = 0  e_11 = 1269.18465
l = 0  e_12 = 4066.47941
l = 1  e_0 = -0.426475835
l = 1  e_1 = 0.256085122
l = 1  e_2 = 1.0165405
l = 1  e_3 = 2.86652023
l = 1  e_4 = 7.26347383
l = 1  e_5 = 17.9562387
l = 1  e_6 = 44.7115614
l = 1  e_7 = 110.070387
l = 1  e_8 = 264.387673
l = 1  e_9 = 631.912942
l = 1  e_10 = 1546.29424
l = 2  e_0 = 0.80024583
l = 2  e_1 = 2.32744158
l = 2  e_2 = 5.74162822
l = 2  e_3 = 13.680835
l = 2  e_4 = 32.7213452
l = 2  e_5 = 80.247744
l = 2  e_6 = 197.280588
l = 2  e_7 = 484.195447
l = 2  e_8 = 1222.12934
l = 3  e_0 = 1.82567332
l = 3  e_1 = 4.98884224
l = 3  e_2 = 11.8012186
l = 3  e_3 = 27.6684676
l = 3  e_4 = 78.2277284
l = 3  e_5 = 230.514041
l = 3  e_6 = 688.413843
l = 4  e_0 = 4.50274024
l = 4  e_1 = 12.2695916
l = 4  e_2 = 30.8351297
l = 4  e_3 = 122.808972
l = 4  e_4 = 451.399857
l = 5  e_0 = 9.03679305
l = 5  e_1 = 25.7319422
l = 5  e_2 = 385.77914
l = 6  e_0 = 19.8431068
l = 0  occ = 2 + 0
l = 1  occ = 0 + 1.333
l = 2  occ = 0 + 0
l = 3  occ = 0 + 0
E1 = -102.63493563705607  E_coul = 28.337450369736263
cycle= 4 E= -74.2974852673198  delta_E= -4.38e-06  |g|=    0  |ddm|= 0.00557
    CPU time for cycle= 4      1.88 sec, wall time      0.47 sec
diis-norm(errvec)=0.000275619
diis-c [-4.96430877e-09  1.54471394e-03  1.93703850e-03 -5.87128064e-02
  1.05523105e+00]
l = 0  e_0 = -20.8146588
l = 0  e_1 = -1.31213708
l = 0  e_2 = 0.102364565
l = 0  e_3 = 0.573623011
l = 0  e_4 = 2.02289628
l = 0  e_5 = 6.04204823
l = 0  e_6 = 17.106468
l = 0  e_7 = 45.5563931
l = 0  e_8 = 111.789678
l = 0  e_9 = 255.981818
l = 0  e_10 = 567.48465
l = 0  e_11 = 1269.18456
l = 0  e_12 = 4066.47936
l = 1  e_0 = -0.426529335
l = 1  e_1 = 0.256072002
l = 1  e_2 = 1.01650488
l = 1  e_3 = 2.86645901
l = 1  e_4 = 7.26338483
l = 1  e_5 = 17.9561246
l = 1  e_6 = 44.7114293
l = 1  e_7 = 110.07025
l = 1  e_8 = 264.387545
l = 1  e_9 = 631.912835
l = 1  e_10 = 1546.29416
l = 2  e_0 = 0.800214939
l = 2  e_1 = 2.32738718
l = 2  e_2 = 5.74154714
l = 2  e_3 = 13.6807299
l = 2  e_4 = 32.721218
l = 2  e_5 = 80.2476028
l = 2  e_6 = 197.280449
l = 2  e_7 = 484.195327
l = 2  e_8 = 1222.12925
l = 3  e_0 = 1.82563807
l = 3  e_1 = 4.9887771
l = 3  e_2 = 11.8011263
l = 3  e_3 = 27.6683485
l = 3  e_4 = 78.2275841
l = 3  e_5 = 230.513898
l = 3  e_6 = 688.413728
l = 4  e_0 = 4.50268626
l = 4  e_1 = 12.2695056
l = 4  e_2 = 30.8350137
l = 4  e_3 = 122.808822
l = 4  e_4 = 451.399721
l = 5  e_0 = 9.03672434
l = 5  e_1 = 25.7318396
l = 5  e_2 = 385.778992
l = 6  e_0 = 19.8430192
l = 0  occ = 2 + 0
l = 1  occ = 0 + 1.333
l = 2  occ = 0 + 0
l = 3  occ = 0 + 0
E1 = -102.63524650031971  E_coul = 28.3377612239533
cycle= 5 E= -74.2974852763664  delta_E= -9.05e-09  |g|=    0  |ddm|= 0.000299
    CPU time for cycle= 5      1.88 sec, wall time      0.47 sec
diis-norm(errvec)=1.15188e-05
diis-c [-1.01377208e-11 -8.37686399e-05 -1.60251458e-04  7.57184975e-03
 -1.84506132e-01  1.17717830e+00]
l = 0  e_0 = -20.8146605
l = 0  e_1 = -1.31214048
l = 0  e_2 = 0.102363283
l = 0  e_3 = 0.573621363
l = 0  e_4 = 2.02289375
l = 0  e_5 = 6.04204533
l = 0  e_6 = 17.1064658
l = 0  e_7 = 45.5563912
l = 0  e_8 = 111.789676
l = 0  e_9 = 255.981816
l = 0  e_10 = 567.484648
l = 0  e_11 = 1269.18456
l = 0  e_12 = 4066.47935
l = 1  e_0 = -0.426531499
l = 1  e_1 = 0.256071071
l = 1  e_2 = 1.01650276
l = 1  e_3 = 2.86645619
l = 1  e_4 = 7.26338199
l = 1  e_5 = 17.9561224
l = 1  e_6 = 44.7114275
l = 1  e_7 = 110.070249
l = 1  e_8 = 264.387543
l = 1  e_9 = 631.912833
l = 1  e_10 = 1546.29415
l = 2  e_0 = 0.800212445
l = 2  e_1 = 2.32738422
l = 2  e_2 = 5.74154404
l = 2  e_3 = 13.6807275
l = 2  e_4 = 32.7212162
l = 2  e_5 = 80.2476011
l = 2  e_6 = 197.280447
l = 2  e_7 = 484.195324
l = 2  e_8 = 1222.12925
l = 3  e_0 = 1.82563502
l = 3  e_1 = 4.98877358
l = 3  e_2 = 11.8011236
l = 3  e_3 = 27.6683465
l = 3  e_4 = 78.2275824
l = 3  e_5 = 230.513896
l = 3  e_6 = 688.413726
l = 4  e_0 = 4.50268239
l = 4  e_1 = 12.2695025
l = 4  e_2 = 30.8350118
l = 4  e_3 = 122.80882
l = 4  e_4 = 451.399719
l = 5  e_0 = 9.03672041
l = 5  e_1 = 25.7318372
l = 5  e_2 = 385.77899
l = 6  e_0 = 19.8430159
l = 0  occ = 2 + 0
l = 1  occ = 0 + 1.333
l = 2  occ = 0 + 0
l = 3  occ = 0 + 0
E1 = -102.63523577481479  E_coul = 28.337750498400332
cycle= 6 E= -74.2974852764144  delta_E= -4.8e-11  |g|=    0  |ddm|= 1.61e-05
    CPU time for cycle= 6      1.88 sec, wall time      0.47 sec
diis-norm(errvec)=1.19234e-06
diis-c [-9.95323254e-14 -1.47899196e-06  1.46111861e-05 -2.45539589e-04
  5.66129778e-03 -5.65481699e-02  1.05111928e+00]
l = 0  e_0 = -20.8146614
l = 0  e_1 = -1.31214106
l = 0  e_2 = 0.102363224
l = 0  e_3 = 0.573621199
l = 0  e_4 = 2.02289341
l = 0  e_5 = 6.04204474
l = 0  e_6 = 17.106465
l = 0  e_7 = 45.5563903
l = 0  e_8 = 111.789676
l = 0  e_9 = 255.981815
l = 0  e_10 = 567.484647
l = 0  e_11 = 1269.18455
l = 0  e_12 = 4066.47935
l = 1  e_0 = -0.426531982
l = 1  e_1 = 0.256071001
l = 1  e_2 = 1.01650253
l = 1  e_3 = 2.86645576
l = 1  e_4 = 7.26338134
l = 1  e_5 = 17.9561216
l = 1  e_6 = 44.7114266
l = 1  e_7 = 110.070248
l = 1  e_8 = 264.387543
l = 1  e_9 = 631.912832
l = 1  e_10 = 1546.29415
l = 2  e_0 = 0.800212248
l = 2  e_1 = 2.32738384
l = 2  e_2 = 5.74154345
l = 2  e_3 = 13.6807267
l = 2  e_4 = 32.7212153
l = 2  e_5 = 80.2476001
l = 2  e_6 = 197.280446
l = 2  e_7 = 484.195324
l = 2  e_8 = 1222.12924
l = 3  e_0 = 1.82563481
l = 3  e_1 = 4.98877312
l = 3  e_2 = 11.8011229
l = 3  e_3 = 27.6683457
l = 3  e_4 = 78.2275815
l = 3  e_5 = 230.513895
l = 3  e_6 = 688.413725
l = 4  e_0 = 4.50268204
l = 4  e_1 = 12.2695018
l = 4  e_2 = 30.8350109
l = 4  e_3 = 122.808819
l = 4  e_4 = 451.399718
l = 5  e_0 = 9.03671993
l = 5  e_1 = 25.7318364
l = 5  e_2 = 385.778989
l = 6  e_0 = 19.8430153
l = 0  occ = 2 + 0
l = 1  occ = 0 + 1.333
l = 2  occ = 0 + 0
l = 3  occ = 0 + 0
E1 = -102.63523758701069  E_coul = 28.33775231059614
cycle= 7 E= -74.2974852764145  delta_E= -9.95e-14  |g|=    0  |ddm|= 8.24e-07
    CPU time for cycle= 7      1.89 sec, wall time      0.47 sec
diis-norm(errvec)=3.97284e-08
diis-c [-2.86585435e-16  5.58778260e-07 -6.71144680e-07 -6.39282167e-06
  2.21969082e-04  1.26656213e-03 -1.16975255e-01  1.11549323e+00]
l = 0  e_0 = -20.8146614
l = 0  e_1 = -1.31214106
l = 0  e_2 = 0.102363223
l = 0  e_3 = 0.573621196
l = 0  e_4 = 2.0228934
l = 0  e_5 = 6.04204473
l = 0  e_6 = 17.106465
l = 0  e_7 = 45.5563903
l = 0  e_8 = 111.789676
l = 0  e_9 = 255.981815
l = 0  e_10 = 567.484647
l = 0  e_11 = 1269.18455
l = 0  e_12 = 4066.47935
l = 1  e_0 = -0.426531989
l = 1  e_1 = 0.256071
l = 1  e_2 = 1.01650253
l = 1  e_3 = 2.86645575
l = 1  e_4 = 7.26338133
l = 1  e_5 = 17.9561216
l = 1  e_6 = 44.7114266
l = 1  e_7 = 110.070248
l = 1  e_8 = 264.387543
l = 1  e_9 = 631.912832
l = 1  e_10 = 1546.29415
l = 2  e_0 = 0.800212244
l = 2  e_1 = 2.32738384
l = 2  e_2 = 5.74154345
l = 2  e_3 = 13.6807267
l = 2  e_4 = 32.7212153
l = 2  e_5 = 80.2476001
l = 2  e_6 = 197.280446
l = 2  e_7 = 484.195323
l = 2  e_8 = 1222.12924
l = 3  e_0 = 1.8256348
l = 3  e_1 = 4.98877311
l = 3  e_2 = 11.8011229
l = 3  e_3 = 27.6683457
l = 3  e_4 = 78.2275815
l = 3  e_5 = 230.513895
l = 3  e_6 = 688.413725
l = 4  e_0 = 4.50268203
l = 4  e_1 = 12.2695018
l = 4  e_2 = 30.8350109
l = 4  e_3 = 122.808819
l = 4  e_4 = 451.399718
l = 5  e_0 = 9.03671992
l = 5  e_1 = 25.7318364
l = 5  e_2 = 385.778989
l = 6  e_0 = 19.8430153
l = 0  occ = 2 + 0
l = 1  occ = 0 + 1.333
l = 2  occ = 0 + 0
l = 3  occ = 0 + 0
E1 = -102.6352375741943  E_coul = 28.337752297779474
cycle= 8 E= -74.2974852764148  delta_E= -2.84e-13  |g|=    0  |ddm|= 3.59e-08
    CPU time for cycle= 8      1.88 sec, wall time      0.47 sec
diis-norm(errvec)=1.69569e-09
Linear dependence found in DIIS error vectors.
diis-c [-9.44151839e-16  2.49312417e-07 -1.78985985e-07 -5.15741477e-06
  1.53090744e-04  9.76411672e-05 -4.53127065e-02  4.90556840e-01
  5.54510222e-01]
l = 0  e_0 = -20.8146614
l = 0  e_1 = -1.31214106
l = 0  e_2 = 0.102363223
l = 0  e_3 = 0.573621196
l = 0  e_4 = 2.0228934
l = 0  e_5 = 6.04204473
l = 0  e_6 = 17.106465
l = 0  e_7 = 45.5563903
l = 0  e_8 = 111.789676
l = 0  e_9 = 255.981815
l = 0  e_10 = 567.484647
l = 0  e_11 = 1269.18455
l = 0  e_12 = 4066.47935
l = 1  e_0 = -0.426531989
l = 1  e_1 = 0.256071
l = 1  e_2 = 1.01650253
l = 1  e_3 = 2.86645575
l = 1  e_4 = 7.26338133
l = 1  e_5 = 17.9561216
l = 1  e_6 = 44.7114266
l = 1  e_7 = 110.070248
l = 1  e_8 = 264.387543
l = 1  e_9 = 631.912832
l = 1  e_10 = 1546.29415
l = 2  e_0 = 0.800212244
l = 2  e_1 = 2.32738384
l = 2  e_2 = 5.74154345
l = 2  e_3 = 13.6807267
l = 2  e_4 = 32.7212153
l = 2  e_5 = 80.2476001
l = 2  e_6 = 197.280446
l = 2  e_7 = 484.195323
l = 2  e_8 = 1222.12924
l = 3  e_0 = 1.8256348
l = 3  e_1 = 4.98877311
l = 3  e_2 = 11.8011229
l = 3  e_3 = 27.6683457
l = 3  e_4 = 78.2275815
l = 3  e_5 = 230.513895
l = 3  e_6 = 688.413725
l = 4  e_0 = 4.50268203
l = 4  e_1 = 12.2695018
l = 4  e_2 = 30.8350109
l = 4  e_3 = 122.808819
l = 4  e_4 = 451.399718
l = 5  e_0 = 9.03671992
l = 5  e_1 = 25.7318364
l = 5  e_2 = 385.778989
l = 6  e_0 = 19.8430153
l = 0  occ = 2 + 0
l = 1  occ = 0 + 1.333
l = 2  occ = 0 + 0
l = 3  occ = 0 + 0
E1 = -102.6352375748112  E_coul = 28.337752298396506
cycle= 9 E= -74.2974852764147  delta_E= 1.42e-13  |g|=    0  |ddm|= 8.3e-10
    CPU time for cycle= 9      1.88 sec, wall time      0.47 sec
diis-norm(errvec)=1.01692e-09
Linear dependence found in DIIS error vectors.
diis-c [-8.78679319e-16  3.58474372e-01 -3.96217199e-07  2.24448186e-06
  4.09255251e-06  6.97658286e-04 -3.41022745e-02  3.16662905e-01
  3.58261399e-01]
l = 0  e_0 = -20.8146614
l = 0  e_1 = -1.31214106
l = 0  e_2 = 0.102363223
l = 0  e_3 = 0.573621196
l = 0  e_4 = 2.0228934
l = 0  e_5 = 6.04204473
l = 0  e_6 = 17.106465
l = 0  e_7 = 45.5563903
l = 0  e_8 = 111.789676
l = 0  e_9 = 255.981815
l = 0  e_10 = 567.484647
l = 0  e_11 = 1269.18455
l = 0  e_12 = 4066.47935
l = 1  e_0 = -0.426531989
l = 1  e_1 = 0.256071
l = 1  e_2 = 1.01650253
l = 1  e_3 = 2.86645575
l = 1  e_4 = 7.26338133
l = 1  e_5 = 17.9561216
l = 1  e_6 = 44.7114266
l = 1  e_7 = 110.070248
l = 1  e_8 = 264.387543
l = 1  e_9 = 631.912832
l = 1  e_10 = 1546.29415
l = 2  e_0 = 0.800212244
l = 2  e_1 = 2.32738384
l = 2  e_2 = 5.74154345
l = 2  e_3 = 13.6807267
l = 2  e_4 = 32.7212153
l = 2  e_5 = 80.2476001
l = 2  e_6 = 197.280446
l = 2  e_7 = 484.195323
l = 2  e_8 = 1222.12924
l = 3  e_0 = 1.8256348
l = 3  e_1 = 4.98877311
l = 3  e_2 = 11.8011229
l = 3  e_3 = 27.6683457
l = 3  e_4 = 78.2275815
l = 3  e_5 = 230.513895
l = 3  e_6 = 688.413725
l = 4  e_0 = 4.50268203
l = 4  e_1 = 12.2695018
l = 4  e_2 = 30.8350109
l = 4  e_3 = 122.808819
l = 4  e_4 = 451.399718
l = 5  e_0 = 9.03671992
l = 5  e_1 = 25.7318364
l = 5  e_2 = 385.778989
l = 6  e_0 = 19.8430153
l = 0  occ = 2 + 0
l = 1  occ = 0 + 1.333
l = 2  occ = 0 + 0
l = 3  occ = 0 + 0
E1 = -102.63523757388334  E_coul = 28.33775229746865
cycle= 10 E= -74.2974852764147  delta_E=    0  |g|=    0  |ddm|= 3.9e-10
    CPU time for cycle= 10      1.88 sec, wall time      0.47 sec
diis-norm(errvec)=8.97438e-10
Linear dependence found in DIIS error vectors.
diis-c [-2.72708110e-16  2.56340136e-01  2.56396192e-01 -5.29660081e-06
  1.80144475e-04 -8.88595417e-04 -1.08765724e-02  2.42668607e-01
  2.56185385e-01]
l = 0  e_0 = -20.8146614
l = 0  e_1 = -1.31214106
l = 0  e_2 = 0.102363223
l = 0  e_3 = 0.573621196
l = 0  e_4 = 2.0228934
l = 0  e_5 = 6.04204473
l = 0  e_6 = 17.106465
l = 0  e_7 = 45.5563903
l = 0  e_8 = 111.789676
l = 0  e_9 = 255.981815
l = 0  e_10 = 567.484647
l = 0  e_11 = 1269.18455
l = 0  e_12 = 4066.47935
l = 1  e_0 = -0.426531989
l = 1  e_1 = 0.256071
l = 1  e_2 = 1.01650253
l = 1  e_3 = 2.86645575
l = 1  e_4 = 7.26338133
l = 1  e_5 = 17.9561216
l = 1  e_6 = 44.7114266
l = 1  e_7 = 110.070248
l = 1  e_8 = 264.387543
l = 1  e_9 = 631.912832
l = 1  e_10 = 1546.29415
l = 2  e_0 = 0.800212244
l = 2  e_1 = 2.32738384
l = 2  e_2 = 5.74154345
l = 2  e_3 = 13.6807267
l = 2  e_4 = 32.7212153
l = 2  e_5 = 80.2476001
l = 2  e_6 = 197.280446
l = 2  e_7 = 484.195323
l = 2  e_8 = 1222.12924
l = 3  e_0 = 1.8256348
l = 3  e_1 = 4.98877311
l = 3  e_2 = 11.8011229
l = 3  e_3 = 27.6683457
l = 3  e_4 = 78.2275815
l = 3  e_5 = 230.513895
l = 3  e_6 = 688.413725
l = 4  e_0 = 4.50268203
l = 4  e_1 = 12.2695018
l = 4  e_2 = 30.8350109
l = 4  e_3 = 122.808819
l = 4  e_4 = 451.399718
l = 5  e_0 = 9.03671992
l = 5  e_1 = 25.7318364
l = 5  e_2 = 385.778989
l = 6  e_0 = 19.8430153
l = 0  occ = 2 + 0
l = 1  occ = 0 + 1.333
l = 2  occ = 0 + 0
l = 3  occ = 0 + 0
E1 = -102.635237573997  E_coul = 28.33775229758241
cycle= 11 E= -74.2974852764146  delta_E= 9.95e-14  |g|=    0  |ddm|= 3.06e-10
    CPU time for cycle= 11      1.88 sec, wall time      0.47 sec
diis-norm(errvec)=1.11827e-09
Linear dependence found in DIIS error vectors.
diis-c [-9.44187651e-16  2.03689950e-01  2.03716805e-01  2.03680608e-01
  3.43895971e-05 -5.78363317e-05 -9.05780046e-03  1.94428248e-01
  2.03565636e-01]
l = 0  e_0 = -20.8146614
l = 0  e_1 = -1.31214106
l = 0  e_2 = 0.102363224
l = 0  e_3 = 0.573621197
l = 0  e_4 = 2.0228934
l = 0  e_5 = 6.04204473
l = 0  e_6 = 17.106465
l = 0  e_7 = 45.5563903
l = 0  e_8 = 111.789676
l = 0  e_9 = 255.981815
l = 0  e_10 = 567.484647
l = 0  e_11 = 1269.18455
l = 0  e_12 = 4066.47935
l = 1  e_0 = -0.426531988
l = 1  e_1 = 0.256071
l = 1  e_2 = 1.01650253
l = 1  e_3 = 2.86645575
l = 1  e_4 = 7.26338133
l = 1  e_5 = 17.9561216
l = 1  e_6 = 44.7114266
l = 1  e_7 = 110.070248
l = 1  e_8 = 264.387543
l = 1  e_9 = 631.912832
l = 1  e_10 = 1546.29415
l = 2  e_0 = 0.800212245
l = 2  e_1 = 2.32738384
l = 2  e_2 = 5.74154345
l = 2  e_3 = 13.6807267
l = 2  e_4 = 32.7212153
l = 2  e_5 = 80.2476001
l = 2  e_6 = 197.280446
l = 2  e_7 = 484.195323
l = 2  e_8 = 1222.12924
l = 3  e_0 = 1.8256348
l = 3  e_1 = 4.98877311
l = 3  e_2 = 11.8011229
l = 3  e_3 = 27.6683457
l = 3  e_4 = 78.2275815
l = 3  e_5 = 230.513895
l = 3  e_6 = 688.413725
l = 4  e_0 = 4.50268203
l = 4  e_1 = 12.2695018
l = 4  e_2 = 30.8350109
l = 4  e_3 = 122.808819
l = 4  e_4 = 451.399718
l = 5  e_0 = 9.03671992
l = 5  e_1 = 25.7318364
l = 5  e_2 = 385.778989
l = 6  e_0 = 19.8430153
l = 0  occ = 2 + 0
l = 1  occ = 0 + 1.333
l = 2  occ = 0 + 0
l = 3  occ = 0 + 0
E1 = -102.63523757195023  E_coul = 28.337752295535502
cycle= 12 E= -74.2974852764147  delta_E= -1.42e-13  |g|=    0  |ddm|= 7.03e-10
    CPU time for cycle= 12      1.87 sec, wall time      0.47 sec
diis-norm(errvec)=2.10159e-09
Linear dependence found in DIIS error vectors.
diis-c [-8.32373813e-16  1.67480131e-01  1.67428088e-01  1.67409974e-01
  1.67242523e-01  9.08255559e-05 -2.73769076e-03  1.65660359e-01
  1.67425791e-01]
l = 0  e_0 = -20.8146614
l = 0  e_1 = -1.31214106
l = 0  e_2 = 0.102363224
l = 0  e_3 = 0.573621197
l = 0  e_4 = 2.0228934
l = 0  e_5 = 6.04204473
l = 0  e_6 = 17.106465
l = 0  e_7 = 45.5563903
l = 0  e_8 = 111.789676
l = 0  e_9 = 255.981815
l = 0  e_10 = 567.484647
l = 0  e_11 = 1269.18455
l = 0  e_12 = 4066.47935
l = 1  e_0 = -0.426531988
l = 1  e_1 = 0.256071
l = 1  e_2 = 1.01650253
l = 1  e_3 = 2.86645575
l = 1  e_4 = 7.26338133
l = 1  e_5 = 17.9561216
l = 1  e_6 = 44.7114266
l = 1  e_7 = 110.070248
l = 1  e_8 = 264.387543
l = 1  e_9 = 631.912832
l = 1  e_10 = 1546.29415
l = 2  e_0 = 0.800212245
l = 2  e_1 = 2.32738384
l = 2  e_2 = 5.74154345
l = 2  e_3 = 13.6807267
l = 2  e_4 = 32.7212153
l = 2  e_5 = 80.2476001
l = 2  e_6 = 197.280446
l = 2  e_7 = 484.195323
l = 2  e_8 = 1222.12924
l = 3  e_0 = 1.8256348
l = 3  e_1 = 4.98877311
l = 3  e_2 = 11.8011229
l = 3  e_3 = 27.6683457
l = 3  e_4 = 78.2275815
l = 3  e_5 = 230.513895
l = 3  e_6 = 688.413725
l = 4  e_0 = 4.50268203
l = 4  e_1 = 12.2695018
l = 4  e_2 = 30.8350109
l = 4  e_3 = 122.808819
l = 4  e_4 = 451.399718
l = 5  e_0 = 9.03671992
l = 5  e_1 = 25.7318364
l = 5  e_2 = 385.778989
l = 6  e_0 = 19.8430153
l = 0  occ = 2 + 0
l = 1  occ = 0 + 1.333
l = 2  occ = 0 + 0
l = 3  occ = 0 + 0
E1 = -102.63523757267428  E_coul = 28.337752296259612
cycle= 13 E= -74.2974852764147  delta_E= 5.68e-14  |g|=    0  |ddm|= 9.38e-10
    CPU time for cycle= 13      1.88 sec, wall time      0.47 sec
diis-norm(errvec)=1.74244e-09
Linear dependence found in DIIS error vectors.
diis-c [-2.79127659e-17  1.43437743e-01  1.43392640e-01  1.43379184e-01
  1.43239274e-01  1.43305915e-01 -2.11577248e-03  1.41966126e-01
  1.43394891e-01]
l = 0  e_0 = -20.8146614
l = 0  e_1 = -1.31214106
l = 0  e_2 = 0.102363223
l = 0  e_3 = 0.573621196
l = 0  e_4 = 2.0228934
l = 0  e_5 = 6.04204473
l = 0  e_6 = 17.106465
l = 0  e_7 = 45.5563903
l = 0  e_8 = 111.789676
l = 0  e_9 = 255.981815
l = 0  e_10 = 567.484647
l = 0  e_11 = 1269.18455
l = 0  e_12 = 4066.47935
l = 1  e_0 = -0.426531989
l = 1  e_1 = 0.256071
l = 1  e_2 = 1.01650253
l = 1  e_3 = 2.86645575
l = 1  e_4 = 7.26338133
l = 1  e_5 = 17.9561216
l = 1  e_6 = 44.7114266
l = 1  e_7 = 110.070248
l = 1  e_8 = 264.387543
l = 1  e_9 = 631.912832
l = 1  e_10 = 1546.29415
l = 2  e_0 = 0.800212244
l = 2  e_1 = 2.32738384
l = 2  e_2 = 5.74154345
l = 2  e_3 = 13.6807267
l = 2  e_4 = 32.7212153
l = 2  e_5 = 80.2476001
l = 2  e_6 = 197.280446
l = 2  e_7 = 484.195323
l = 2  e_8 = 1222.12924
l = 3  e_0 = 1.8256348
l = 3  e_1 = 4.98877311
l = 3  e_2 = 11.8011229
l = 3  e_3 = 27.6683457
l = 3  e_4 = 78.2275815
l = 3  e_5 = 230.513895
l = 3  e_6 = 688.413725
l = 4  e_0 = 4.50268203
l = 4  e_1 = 12.2695018
l = 4  e_2 = 30.8350109
l = 4  e_3 = 122.808819
l = 4  e_4 = 451.399718
l = 5  e_0 = 9.03671992
l = 5  e_1 = 25.7318364
l = 5  e_2 = 385.778989
l = 6  e_0 = 19.8430153
l = 0  occ = 2 + 0
l = 1  occ = 0 + 1.333
l = 2  occ = 0 + 0
l = 3  occ = 0 + 0
E1 = -102.63523757350238  E_coul = 28.337752297087608
cycle= 14 E= -74.2974852764148  delta_E= -9.95e-14  |g|=    0  |ddm|= 4.53e-10
    CPU time for cycle= 14      1.88 sec, wall time      0.47 sec
diis-norm(errvec)=1.30776e-09
Linear dependence found in DIIS error vectors.
diis-c [-2.89052492e-16  1.25000000e-01  1.25000000e-01  1.25000000e-01
  1.25000000e-01  1.25000000e-01  1.25000000e-01  1.25000000e-01
  1.25000000e-01]
l = 0  e_0 = -20.8146614
l = 0  e_1 = -1.31214106
l = 0  e_2 = 0.102363223
l = 0  e_3 = 0.573621196
l = 0  e_4 = 2.0228934
l = 0  e_5 = 6.04204473
l = 0  e_6 = 17.106465
l = 0  e_7 = 45.5563903
l = 0  e_8 = 111.789676
l = 0  e_9 = 255.981815
l = 0  e_10 = 567.484647
l = 0  e_11 = 1269.18455
l = 0  e_12 = 4066.47935
l = 1  e_0 = -0.426531989
l = 1  e_1 = 0.256071
l = 1  e_2 = 1.01650253
l = 1  e_3 = 2.86645575
l = 1  e_4 = 7.26338133
l = 1  e_5 = 17.9561216
l = 1  e_6 = 44.7114266
l = 1  e_7 = 110.070248
l = 1  e_8 = 264.387543
l = 1  e_9 = 631.912832
l = 1  e_10 = 1546.29415
l = 2  e_0 = 0.800212244
l = 2  e_1 = 2.32738384
l = 2  e_2 = 5.74154345
l = 2  e_3 = 13.6807267
l = 2  e_4 = 32.7212153
l = 2  e_5 = 80.2476001
l = 2  e_6 = 197.280446
l = 2  e_7 = 484.195323
l = 2  e_8 = 1222.12924
l = 3  e_0 = 1.8256348
l = 3  e_1 = 4.98877311
l = 3  e_2 = 11.8011229
l = 3  e_3 = 27.6683457
l = 3  e_4 = 78.2275815
l = 3  e_5 = 230.513895
l = 3  e_6 = 688.413725
l = 4  e_0 = 4.50268203
l = 4  e_1 = 12.2695018
l = 4  e_2 = 30.8350109
l = 4  e_3 = 122.808819
l = 4  e_4 = 451.399718
l = 5  e_0 = 9.03671992
l = 5  e_1 = 25.7318364
l = 5  e_2 = 385.778989
l = 6  e_0 = 19.8430153
l = 0  occ = 2 + 0
l = 1  occ = 0 + 1.333
l = 2  occ = 0 + 0
l = 3  occ = 0 + 0
E1 = -102.63523757576536  E_coul = 28.337752299350846
cycle= 15 E= -74.2974852764145  delta_E= 2.7e-13  |g|=    0  |ddm|= 4.84e-10
    CPU time for cycle= 15      1.88 sec, wall time      0.47 sec
diis-norm(errvec)=9.72912e-10
Linear dependence found in DIIS error vectors.
diis-c [-2.89052492e-16  1.25000000e-01  1.25000000e-01  1.25000000e-01
  1.25000000e-01  1.25000000e-01  1.25000000e-01  1.25000000e-01
  1.25000000e-01]
l = 0  e_0 = -20.8146614
l = 0  e_1 = -1.31214106
l = 0  e_2 = 0.102363223
l = 0  e_3 = 0.573621196
l = 0  e_4 = 2.0228934
l = 0  e_5 = 6.04204473
l = 0  e_6 = 17.106465
l = 0  e_7 = 45.5563903
l = 0  e_8 = 111.789676
l = 0  e_9 = 255.981815
l = 0  e_10 = 567.484647
l = 0  e_11 = 1269.18455
l = 0  e_12 = 4066.47935
l = 1  e_0 = -0.426531989
l = 1  e_1 = 0.256071
l = 1  e_2 = 1.01650253
l = 1  e_3 = 2.86645575
l = 1  e_4 = 7.26338133
l = 1  e_5 = 17.9561216
l = 1  e_6 = 44.7114266
l = 1  e_7 = 110.070248
l = 1  e_8 = 264.387543
l = 1  e_9 = 631.912832
l = 1  e_10 = 1546.29415
l = 2  e_0 = 0.800212244
l = 2  e_1 = 2.32738384
l = 2  e_2 = 5.74154344
l = 2  e_3 = 13.6807267
l = 2  e_4 = 32.7212153
l = 2  e_5 = 80.2476001
l = 2  e_6 = 197.280446
l = 2  e_7 = 484.195323
l = 2  e_8 = 1222.12924
l = 3  e_0 = 1.8256348
l = 3  e_1 = 4.98877311
l = 3  e_2 = 11.8011229
l = 3  e_3 = 27.6683457
l = 3  e_4 = 78.2275815
l = 3  e_5 = 230.513895
l = 3  e_6 = 688.413725
l = 4  e_0 = 4.50268203
l = 4  e_1 = 12.2695018
l = 4  e_2 = 30.8350109
l = 4  e_3 = 122.808819
l = 4  e_4 = 451.399718
l = 5  e_0 = 9.03671992
l = 5  e_1 = 25.7318364
l = 5  e_2 = 385.778989
l = 6  e_0 = 19.8430153
l = 0  occ = 2 + 0
l = 1  occ = 0 + 1.333
l = 2  occ = 0 + 0
l = 3  occ = 0 + 0
E1 = -102.63523757575256  E_coul = 28.337752299337826
cycle= 16 E= -74.2974852764147  delta_E= -2.27e-13  |g|=    0  |ddm|= 7.64e-10
    CPU time for cycle= 16      1.88 sec, wall time      0.48 sec
diis-norm(errvec)=3.72333e-10
Linear dependence found in DIIS error vectors.
diis-c [-2.89052492e-16  1.25000000e-01  1.25000000e-01  1.25000000e-01
  1.25000000e-01  1.25000000e-01  1.25000000e-01  1.25000000e-01
  1.25000000e-01]
l = 0  e_0 = -20.8146614
l = 0  e_1 = -1.31214106
l = 0  e_2 = 0.102363223
l = 0  e_3 = 0.573621196
l = 0  e_4 = 2.0228934
l = 0  e_5 = 6.04204473
l = 0  e_6 = 17.106465
l = 0  e_7 = 45.5563903
l = 0  e_8 = 111.789676
l = 0  e_9 = 255.981815
l = 0  e_10 = 567.484647
l = 0  e_11 = 1269.18455
l = 0  e_12 = 4066.47935
l = 1  e_0 = -0.426531989
l = 1  e_1 = 0.256071
l = 1  e_2 = 1.01650253
l = 1  e_3 = 2.86645575
l = 1  e_4 = 7.26338133
l = 1  e_5 = 17.9561216
l = 1  e_6 = 44.7114266
l = 1  e_7 = 110.070248
l = 1  e_8 = 264.387543
l = 1  e_9 = 631.912832
l = 1  e_10 = 1546.29415
l = 2  e_0 = 0.800212244
l = 2  e_1 = 2.32738384
l = 2  e_2 = 5.74154344
l = 2  e_3 = 13.6807267
l = 2  e_4 = 32.7212153
l = 2  e_5 = 80.2476001
l = 2  e_6 = 197.280446
l = 2  e_7 = 484.195323
l = 2  e_8 = 1222.12924
l = 3  e_0 = 1.8256348
l = 3  e_1 = 4.98877311
l = 3  e_2 = 11.8011229
l = 3  e_3 = 27.6683457
l = 3  e_4 = 78.2275815
l = 3  e_5 = 230.513895
l = 3  e_6 = 688.413725
l = 4  e_0 = 4.50268203
l = 4  e_1 = 12.2695018
l = 4  e_2 = 30.8350109
l = 4  e_3 = 122.808819
l = 4  e_4 = 451.399718
l = 5  e_0 = 9.03671992
l = 5  e_1 = 25.7318364
l = 5  e_2 = 385.778989
l = 6  e_0 = 19.8430153
l = 0  occ = 2 + 0
l = 1  occ = 0 + 1.333
l = 2  occ = 0 + 0
l = 3  occ = 0 + 0
E1 = -102.63523757563802  E_coul = 28.337752299223457
cycle= 17 E= -74.2974852764146  delta_E= 1.71e-13  |g|=    0  |ddm|= 4.57e-11
    CPU time for cycle= 17      1.87 sec, wall time      0.47 sec
l = 0  e_0 = -20.8146614
l = 0  e_1 = -1.31214106
l = 0  e_2 = 0.102363223
l = 0  e_3 = 0.573621196
l = 0  e_4 = 2.0228934
l = 0  e_5 = 6.04204473
l = 0  e_6 = 17.106465
l = 0  e_7 = 45.5563903
l = 0  e_8 = 111.789676
l = 0  e_9 = 255.981815
l = 0  e_10 = 567.484647
l = 0  e_11 = 1269.18455
l = 0  e_12 = 4066.47935
l = 1  e_0 = -0.426531989
l = 1  e_1 = 0.256071
l = 1  e_2 = 1.01650253
l = 1  e_3 = 2.86645575
l = 1  e_4 = 7.26338133
l = 1  e_5 = 17.9561216
l = 1  e_6 = 44.7114266
l = 1  e_7 = 110.070248
l = 1  e_8 = 264.387543
l = 1  e_9 = 631.912832
l = 1  e_10 = 1546.29415
l = 2  e_0 = 0.800212244
l = 2  e_1 = 2.32738384
l = 2  e_2 = 5.74154345
l = 2  e_3 = 13.6807267
l = 2  e_4 = 32.7212153
l = 2  e_5 = 80.2476001
l = 2  e_6 = 197.280446
l = 2  e_7 = 484.195323
l = 2  e_8 = 1222.12924
l = 3  e_0 = 1.8256348
l = 3  e_1 = 4.98877311
l = 3  e_2 = 11.8011229
l = 3  e_3 = 27.6683457
l = 3  e_4 = 78.2275815
l = 3  e_5 = 230.513895
l = 3  e_6 = 688.413725
l = 4  e_0 = 4.50268203
l = 4  e_1 = 12.2695018
l = 4  e_2 = 30.8350109
l = 4  e_3 = 122.808819
l = 4  e_4 = 451.399718
l = 5  e_0 = 9.03671992
l = 5  e_1 = 25.7318364
l = 5  e_2 = 385.778989
l = 6  e_0 = 19.8430153
l = 0  occ = 2 + 0
l = 1  occ = 0 + 1.333
l = 2  occ = 0 + 0
l = 3  occ = 0 + 0
E1 = -102.63523757473314  E_coul = 28.337752298318485
Extra cycle  E= -74.2974852764146  delta_E= -8.53e-14  |g|=    0  |ddm|= 4.57e-11
    CPU time for scf_cycle     59.25 sec, wall time     15.67 sec
    CPU time for SCF     59.25 sec, wall time     15.67 sec
Atomic HF for atom  O  converged. SCF energy = -74.2974852764146

Atom O, E = -74.2974852764
Nelec from initial guess = (np.float64(3.9999999999999956), np.float64(3.9999999999999956))
E1 = -102.63523757473314  Ecoul = 28.33775229831848
init E= -74.2974852764147
    CPU time for initialize scf     86.55 sec, wall time     23.20 sec
alpha HOMO (B2u) = -0.426531989013636  LUMO (Ag) = 0.102363223472229
alpha irrep_nelec = [2, 0, 0, 0, 0, 1, 1, 1]
beta  irrep_nelec = [2, 0, 0, 0, 0, 0, 0, 0]
alpha-Ag nocc = 2  HOMO = -1.31214106460634  LUMO = 0.102363223472229
   mo_energy = [-2.08146614e+01 -1.31214106e+00  1.02363223e-01  5.73621196e-01
  8.00212244e-01  8.00212244e-01  2.02289340e+00  2.32738384e+00
  2.32738384e+00  4.50268203e+00  4.50268203e+00  4.50268203e+00
  5.74154344e+00  5.74154344e+00  6.04204473e+00  1.22695018e+01
  1.22695018e+01  1.22695018e+01  1.36807267e+01  1.36807267e+01
  1.71064650e+01  1.98430153e+01  1.98430153e+01  1.98430153e+01
  1.98430153e+01  3.08350109e+01  3.08350109e+01  3.08350109e+01
  3.27212153e+01  3.27212153e+01  4.55563903e+01  8.02476001e+01
  8.02476001e+01  1.11789676e+02  1.22808819e+02  1.22808819e+02
  1.22808819e+02  1.97280446e+02  1.97280446e+02  2.55981815e+02
  4.51399718e+02  4.51399718e+02  4.51399718e+02  4.84195323e+02
  4.84195323e+02  5.67484647e+02  1.22212924e+03  1.22212924e+03
  1.26918455e+03  4.06647935e+03]
alpha-B1g nocc = 0
   mo_energy = [8.00212244e-01 2.32738384e+00 4.50268203e+00 4.50268203e+00
 5.74154344e+00 1.22695018e+01 1.22695018e+01 1.36807267e+01
 1.98430153e+01 1.98430153e+01 1.98430153e+01 3.08350109e+01
 3.08350109e+01 3.27212153e+01 8.02476001e+01 1.22808819e+02
 1.22808819e+02 1.97280446e+02 4.51399718e+02 4.51399718e+02
 4.84195323e+02 1.22212924e+03]
alpha-B2g nocc = 0
   mo_energy = [8.00212244e-01 2.32738384e+00 4.50268203e+00 4.50268203e+00
 5.74154344e+00 1.22695018e+01 1.22695018e+01 1.36807267e+01
 1.98430153e+01 1.98430153e+01 1.98430153e+01 3.08350109e+01
 3.08350109e+01 3.27212153e+01 8.02476001e+01 1.22808819e+02
 1.22808819e+02 1.97280446e+02 4.51399718e+02 4.51399718e+02
 4.84195323e+02 1.22212924e+03]
alpha-B3g nocc = 0
   mo_energy = [8.00212244e-01 2.32738384e+00 4.50268203e+00 4.50268203e+00
 5.74154344e+00 1.22695018e+01 1.22695018e+01 1.36807267e+01
 1.98430153e+01 1.98430153e+01 1.98430153e+01 3.08350109e+01
 3.08350109e+01 3.27212153e+01 8.02476001e+01 1.22808819e+02
 1.22808819e+02 1.97280446e+02 4.51399718e+02 4.51399718e+02
 4.84195323e+02 1.22212924e+03]
alpha-Au nocc = 0
   mo_energy = [  1.8256348    4.98877311   9.03671992   9.03671992  11.80112285
  25.73183641  25.73183641  27.66834567  78.22758146 230.51389517
 385.77898931 385.77898931 688.4137251 ]
alpha-B1u nocc = 1  HOMO = -0.426531989013866  LUMO = 0.256071000151972
   mo_energy = [-4.26531989e-01  2.56071000e-01  1.01650253e+00  1.82563480e+00
  1.82563480e+00  2.86645575e+00  4.98877311e+00  4.98877311e+00
  7.26338133e+00  9.03671992e+00  9.03671992e+00  9.03671992e+00
  1.18011229e+01  1.18011229e+01  1.79561216e+01  2.57318364e+01
  2.57318364e+01  2.57318364e+01  2.76683457e+01  2.76683457e+01
  4.47114266e+01  7.82275815e+01  7.82275815e+01  1.10070248e+02
  2.30513895e+02  2.30513895e+02  2.64387543e+02  3.85778989e+02
  3.85778989e+02  3.85778989e+02  6.31912832e+02  6.88413725e+02
  6.88413725e+02  1.54629415e+03]
alpha-B2u nocc = 1  HOMO = -0.426531989013636  LUMO = 0.256071000152193
   mo_energy = [-4.26531989e-01  2.56071000e-01  1.01650253e+00  1.82563480e+00
  1.82563480e+00  2.86645575e+00  4.98877311e+00  4.98877311e+00
  7.26338133e+00  9.03671992e+00  9.03671992e+00  9.03671992e+00
  1.18011229e+01  1.18011229e+01  1.79561216e+01  2.57318364e+01
  2.57318364e+01  2.57318364e+01  2.76683457e+01  2.76683457e+01
  4.47114266e+01  7.82275815e+01  7.82275815e+01  1.10070248e+02
  2.30513895e+02  2.30513895e+02  2.64387543e+02  3.85778989e+02
  3.85778989e+02  3.85778989e+02  6.31912832e+02  6.88413725e+02
  6.88413725e+02  1.54629415e+03]
alpha-B3u nocc = 1  HOMO = -0.426531989013767  LUMO = 0.256071000152058
   mo_energy = [-4.26531989e-01  2.56071000e-01  1.01650253e+00  1.82563480e+00
  1.82563480e+00  2.86645575e+00  4.98877311e+00  4.98877311e+00
  7.26338133e+00  9.03671992e+00  9.03671992e+00  9.03671992e+00
  1.18011229e+01  1.18011229e+01  1.79561216e+01  2.57318364e+01
  2.57318364e+01  2.57318364e+01  2.76683457e+01  2.76683457e+01
  4.47114266e+01  7.82275815e+01  7.82275815e+01  1.10070248e+02
  2.30513895e+02  2.30513895e+02  2.64387543e+02  3.85778989e+02
  3.85778989e+02  3.85778989e+02  6.31912832e+02  6.88413725e+02
  6.88413725e+02  1.54629415e+03]
beta-Ag nocc = 2  HOMO = -1.31214106460634  LUMO = 0.102363223472229
   mo_energy = [-2.08146614e+01 -1.31214106e+00  1.02363223e-01  5.73621196e-01
  8.00212244e-01  8.00212244e-01  2.02289340e+00  2.32738384e+00
  2.32738384e+00  4.50268203e+00  4.50268203e+00  4.50268203e+00
  5.74154344e+00  5.74154344e+00  6.04204473e+00  1.22695018e+01
  1.22695018e+01  1.22695018e+01  1.36807267e+01  1.36807267e+01
  1.71064650e+01  1.98430153e+01  1.98430153e+01  1.98430153e+01
  1.98430153e+01  3.08350109e+01  3.08350109e+01  3.08350109e+01
  3.27212153e+01  3.27212153e+01  4.55563903e+01  8.02476001e+01
  8.02476001e+01  1.11789676e+02  1.22808819e+02  1.22808819e+02
  1.22808819e+02  1.97280446e+02  1.97280446e+02  2.55981815e+02
  4.51399718e+02  4.51399718e+02  4.51399718e+02  4.84195323e+02
  4.84195323e+02  5.67484647e+02  1.22212924e+03  1.22212924e+03
  1.26918455e+03  4.06647935e+03]
beta-B1g nocc = 0
   mo_energy = [8.00212244e-01 2.32738384e+00 4.50268203e+00 4.50268203e+00
 5.74154344e+00 1.22695018e+01 1.22695018e+01 1.36807267e+01
 1.98430153e+01 1.98430153e+01 1.98430153e+01 3.08350109e+01
 3.08350109e+01 3.27212153e+01 8.02476001e+01 1.22808819e+02
 1.22808819e+02 1.97280446e+02 4.51399718e+02 4.51399718e+02
 4.84195323e+02 1.22212924e+03]
beta-B2g nocc = 0
   mo_energy = [8.00212244e-01 2.32738384e+00 4.50268203e+00 4.50268203e+00
 5.74154344e+00 1.22695018e+01 1.22695018e+01 1.36807267e+01
 1.98430153e+01 1.98430153e+01 1.98430153e+01 3.08350109e+01
 3.08350109e+01 3.27212153e+01 8.02476001e+01 1.22808819e+02
 1.22808819e+02 1.97280446e+02 4.51399718e+02 4.51399718e+02
 4.84195323e+02 1.22212924e+03]
beta-B3g nocc = 0
   mo_energy = [8.00212244e-01 2.32738384e+00 4.50268203e+00 4.50268203e+00
 5.74154344e+00 1.22695018e+01 1.22695018e+01 1.36807267e+01
 1.98430153e+01 1.98430153e+01 1.98430153e+01 3.08350109e+01
 3.08350109e+01 3.27212153e+01 8.02476001e+01 1.22808819e+02
 1.22808819e+02 1.97280446e+02 4.51399718e+02 4.51399718e+02
 4.84195323e+02 1.22212924e+03]
beta-Au nocc = 0
   mo_energy = [  1.8256348    4.98877311   9.03671992   9.03671992  11.80112285
  25.73183641  25.73183641  27.66834567  78.22758146 230.51389517
 385.77898931 385.77898931 688.4137251 ]
beta-B1u nocc = 0
   mo_energy = [-4.26531989e-01  2.56071000e-01  1.01650253e+00  1.82563480e+00
  1.82563480e+00  2.86645575e+00  4.98877311e+00  4.98877311e+00
  7.26338133e+00  9.03671992e+00  9.03671992e+00  9.03671992e+00
  1.18011229e+01  1.18011229e+01  1.79561216e+01  2.57318364e+01
  2.57318364e+01  2.57318364e+01  2.76683457e+01  2.76683457e+01
  4.47114266e+01  7.82275815e+01  7.82275815e+01  1.10070248e+02
  2.30513895e+02  2.30513895e+02  2.64387543e+02  3.85778989e+02
  3.85778989e+02  3.85778989e+02  6.31912832e+02  6.88413725e+02
  6.88413725e+02  1.54629415e+03]
beta-B2u nocc = 0
   mo_energy = [-4.26531989e-01  2.56071000e-01  1.01650253e+00  1.82563480e+00
  1.82563480e+00  2.86645575e+00  4.98877311e+00  4.98877311e+00
  7.26338133e+00  9.03671992e+00  9.03671992e+00  9.03671992e+00
  1.18011229e+01  1.18011229e+01  1.79561216e+01  2.57318364e+01
  2.57318364e+01  2.57318364e+01  2.76683457e+01  2.76683457e+01
  4.47114266e+01  7.82275815e+01  7.82275815e+01  1.10070248e+02
  2.30513895e+02  2.30513895e+02  2.64387543e+02  3.85778989e+02
  3.85778989e+02  3.85778989e+02  6.31912832e+02  6.88413725e+02
  6.88413725e+02  1.54629415e+03]
beta-B3u nocc = 0
   mo_energy = [-4.26531989e-01  2.56071000e-01  1.01650253e+00  1.82563480e+00
  1.82563480e+00  2.86645575e+00  4.98877311e+00  4.98877311e+00
  7.26338133e+00  9.03671992e+00  9.03671992e+00  9.03671992e+00
  1.18011229e+01  1.18011229e+01  1.79561216e+01  2.57318364e+01
  2.57318364e+01  2.57318364e+01  2.76683457e+01  2.76683457e+01
  4.47114266e+01  7.82275815e+01  7.82275815e+01  1.10070248e+02
  2.30513895e+02  2.30513895e+02  2.64387543e+02  3.85778989e+02
  3.85778989e+02  3.85778989e+02  6.31912832e+02  6.88413725e+02
  6.88413725e+02  1.54629415e+03]
multiplicity <S^2> = 3.75  2S+1 = 4
E1 = -96.46887164957411  Ecoul = 22.254599044309245
cycle= 1 E= -74.2142726052649  delta_E= 0.0832  |g|= 0.546  |ddm|= 0.606
    CPU time for cycle= 1      3.86 sec, wall time      0.98 sec
diis-norm(errvec)=0.771706
diis-c [-0.5955304  1.       ]
alpha HOMO (B2u) = -1.46976657505824  LUMO (Ag) = -0.167009168385336
alpha irrep_nelec = [2, 0, 0, 0, 0, 1, 1, 1]
beta  irrep_nelec = [2, 0, 0, 0, 0, 0, 0, 0]
alpha-Ag nocc = 2  HOMO = -2.23465813089555  LUMO = -0.167009168385336
   mo_energy = [-2.19012282e+01 -2.23465813e+00 -1.67009168e-01  2.10186164e-01
  3.57275096e-01  3.57275096e-01  1.48141016e+00  1.71048502e+00
  1.71048502e+00  3.94646991e+00  3.94646991e+00  3.94646991e+00
  4.98789466e+00  4.98789466e+00  5.30794918e+00  1.15152822e+01
  1.15152822e+01  1.15152822e+01  1.28063865e+01  1.28063865e+01
  1.62164055e+01  1.90935752e+01  1.90935752e+01  1.90935752e+01
  1.90935752e+01  2.99200992e+01  2.99200992e+01  2.99200992e+01
  3.17551686e+01  3.17551686e+01  4.45743706e+01  7.92253059e+01
  7.92253059e+01  1.10762370e+02  1.21768458e+02  1.21768458e+02
  1.21768458e+02  1.96231736e+02  1.96231736e+02  2.54933393e+02
  4.50338371e+02  4.50338371e+02  4.50338371e+02  4.83135622e+02
  4.83135622e+02  5.66426333e+02  1.22106531e+03  1.22106531e+03
  1.26812175e+03  4.06541432e+03]
alpha-B1g nocc = 0
   mo_energy = [3.57275096e-01 1.71048502e+00 3.94646991e+00 3.94646991e+00
 4.98789466e+00 1.15152822e+01 1.15152822e+01 1.28063865e+01
 1.90935752e+01 1.90935752e+01 1.90935752e+01 2.99200992e+01
 2.99200992e+01 3.17551686e+01 7.92253059e+01 1.21768458e+02
 1.21768458e+02 1.96231736e+02 4.50338371e+02 4.50338371e+02
 4.83135622e+02 1.22106531e+03]
alpha-B2g nocc = 0
   mo_energy = [3.57275096e-01 1.71048502e+00 3.94646991e+00 3.94646991e+00
 4.98789466e+00 1.15152822e+01 1.15152822e+01 1.28063865e+01
 1.90935752e+01 1.90935752e+01 1.90935752e+01 2.99200992e+01
 2.99200992e+01 3.17551686e+01 7.92253059e+01 1.21768458e+02
 1.21768458e+02 1.96231736e+02 4.50338371e+02 4.50338371e+02
 4.83135622e+02 1.22106531e+03]
alpha-B3g nocc = 0
   mo_energy = [3.57275096e-01 1.71048502e+00 3.94646991e+00 3.94646991e+00
 4.98789466e+00 1.15152822e+01 1.15152822e+01 1.28063865e+01
 1.90935752e+01 1.90935752e+01 1.90935752e+01 2.99200992e+01
 2.99200992e+01 3.17551686e+01 7.92253059e+01 1.21768458e+02
 1.21768458e+02 1.96231736e+02 4.50338371e+02 4.50338371e+02
 4.83135622e+02 1.22106531e+03]
alpha-Au nocc = 0
   mo_energy = [  1.37006301   4.34867928   8.40132517   8.40132517  11.00100005
  24.88581296  24.88581296  26.73854876  77.2038699  229.45972581
 384.71943729 384.71943729 687.35062988]
alpha-B1u nocc = 1  HOMO = -1.46976657505826  LUMO = -0.0470510113376274
   mo_energy = [-1.46976658e+00 -4.70510113e-02  5.56729263e-01  1.37006301e+00
  1.37006301e+00  2.23637671e+00  4.34867928e+00  4.34867928e+00
  6.47886568e+00  8.40132517e+00  8.40132517e+00  8.40132517e+00
  1.10010000e+01  1.10010000e+01  1.70474010e+01  2.48858130e+01
  2.48858130e+01  2.48858130e+01  2.67385488e+01  2.67385488e+01
  4.37205308e+01  7.72038699e+01  7.72038699e+01  1.09036983e+02
  2.29459726e+02  2.29459726e+02  2.63335060e+02  3.84719437e+02
  3.84719437e+02  3.84719437e+02  6.30852067e+02  6.87350630e+02
  6.87350630e+02  1.54523005e+03]
alpha-B2u nocc = 1  HOMO = -1.46976657505824  LUMO = -0.0470510113377226
   mo_energy = [-1.46976658e+00 -4.70510113e-02  5.56729263e-01  1.37006301e+00
  1.37006301e+00  2.23637671e+00  4.34867928e+00  4.34867928e+00
  6.47886568e+00  8.40132517e+00  8.40132517e+00  8.40132517e+00
  1.10010000e+01  1.10010000e+01  1.70474010e+01  2.48858130e+01
  2.48858130e+01  2.48858130e+01  2.67385488e+01  2.67385488e+01
  4.37205308e+01  7.72038699e+01  7.72038699e+01  1.09036983e+02
  2.29459726e+02  2.29459726e+02  2.63335060e+02  3.84719437e+02
  3.84719437e+02  3.84719437e+02  6.30852067e+02  6.87350630e+02
  6.87350630e+02  1.54523005e+03]
alpha-B3u nocc = 1  HOMO = -1.46976657505831  LUMO = -0.0470510113377917
   mo_energy = [-1.46976658e+00 -4.70510113e-02  5.56729263e-01  1.37006301e+00
  1.37006301e+00  2.23637671e+00  4.34867928e+00  4.34867928e+00
  6.47886568e+00  8.40132517e+00  8.40132517e+00  8.40132517e+00
  1.10010000e+01  1.10010000e+01  1.70474010e+01  2.48858130e+01
  2.48858130e+01  2.48858130e+01  2.67385488e+01  2.67385488e+01
  4.37205308e+01  7.72038699e+01  7.72038699e+01  1.09036983e+02
  2.29459726e+02  2.29459726e+02  2.63335060e+02  3.84719437e+02
  3.84719437e+02  3.84719437e+02  6.30852067e+02  6.87350630e+02
  6.87350630e+02  1.54523005e+03]
beta-Ag nocc = 2  HOMO = -1.76945470486995  LUMO = -0.142006645216118
   mo_energy = [-2.18048355e+01 -1.76945470e+00 -1.42006645e-01  2.51864392e-01
  4.33461265e-01  4.33461265e-01  1.55486531e+00  1.84430778e+00
  1.84430778e+00  3.98741577e+00  3.98741577e+00  3.98741577e+00
  5.12047187e+00  5.12047187e+00  5.39572027e+00  1.15788332e+01
  1.15788332e+01  1.15788332e+01  1.29091903e+01  1.29091903e+01
  1.62871835e+01  1.91315630e+01  1.91315630e+01  1.91315630e+01
  1.91315630e+01  2.99804322e+01  2.99804322e+01  2.99804322e+01
  3.18199315e+01  3.18199315e+01  4.46157707e+01  7.92581275e+01
  7.92581275e+01  1.10782743e+02  1.21796466e+02  1.21796466e+02
  1.21796466e+02  1.96245468e+02  1.96245468e+02  2.54942554e+02
  4.50345061e+02  4.50345061e+02  4.50345061e+02  4.83140562e+02
  4.83140562e+02  5.66430126e+02  1.22106680e+03  1.22106680e+03
  1.26812315e+03  4.06541470e+03]
beta-B1g nocc = 0
   mo_energy = [4.33461265e-01 1.84430778e+00 3.98741577e+00 3.98741577e+00
 5.12047187e+00 1.15788332e+01 1.15788332e+01 1.29091903e+01
 1.91315630e+01 1.91315630e+01 1.91315630e+01 2.99804322e+01
 2.99804322e+01 3.18199315e+01 7.92581275e+01 1.21796466e+02
 1.21796466e+02 1.96245468e+02 4.50345061e+02 4.50345061e+02
 4.83140562e+02 1.22106680e+03]
beta-B2g nocc = 0
   mo_energy = [4.33461265e-01 1.84430778e+00 3.98741577e+00 3.98741577e+00
 5.12047187e+00 1.15788332e+01 1.15788332e+01 1.29091903e+01
 1.91315630e+01 1.91315630e+01 1.91315630e+01 2.99804322e+01
 2.99804322e+01 3.18199315e+01 7.92581275e+01 1.21796466e+02
 1.21796466e+02 1.96245468e+02 4.50345061e+02 4.50345061e+02
 4.83140562e+02 1.22106680e+03]
beta-B3g nocc = 0
   mo_energy = [4.33461265e-01 1.84430778e+00 3.98741577e+00 3.98741577e+00
 5.12047187e+00 1.15788332e+01 1.15788332e+01 1.29091903e+01
 1.91315630e+01 1.91315630e+01 1.91315630e+01 2.99804322e+01
 2.99804322e+01 3.18199315e+01 7.92581275e+01 1.21796466e+02
 1.21796466e+02 1.96245468e+02 4.50345061e+02 4.50345061e+02
 4.83140562e+02 1.22106680e+03]
beta-Au nocc = 0
   mo_energy = [  1.40936631   4.42596777   8.43966808   8.43966808  11.08818038
  24.93691472  24.93691472  26.80900207  77.24181743 229.4729125
 384.7284343  384.7284343  687.35408293]
beta-B1u nocc = 0
   mo_energy = [-5.82965261e-01 -1.01309921e-02  6.35555335e-01  1.40936631e+00
  1.40936631e+00  2.34002123e+00  4.42596777e+00  4.42596777e+00
  6.57777826e+00  8.43966808e+00  8.43966808e+00  8.43966808e+00
  1.10881804e+01  1.10881804e+01  1.71215799e+01  2.49369147e+01
  2.49369147e+01  2.49369147e+01  2.68090021e+01  2.68090021e+01
  4.37645745e+01  7.72418174e+01  7.72418174e+01  1.09058327e+02
  2.29472913e+02  2.29472913e+02  2.63343996e+02  3.84728434e+02
  3.84728434e+02  3.84728434e+02  6.30855368e+02  6.87354083e+02
  6.87354083e+02  1.54523111e+03]
beta-B2u nocc = 0
   mo_energy = [-5.82965261e-01 -1.01309921e-02  6.35555335e-01  1.40936631e+00
  1.40936631e+00  2.34002123e+00  4.42596777e+00  4.42596777e+00
  6.57777826e+00  8.43966808e+00  8.43966808e+00  8.43966808e+00
  1.10881804e+01  1.10881804e+01  1.71215799e+01  2.49369147e+01
  2.49369147e+01  2.49369147e+01  2.68090021e+01  2.68090021e+01
  4.37645745e+01  7.72418174e+01  7.72418174e+01  1.09058327e+02
  2.29472913e+02  2.29472913e+02  2.63343996e+02  3.84728434e+02
  3.84728434e+02  3.84728434e+02  6.30855368e+02  6.87354083e+02
  6.87354083e+02  1.54523111e+03]
beta-B3u nocc = 0
   mo_energy = [-5.82965261e-01 -1.01309921e-02  6.35555335e-01  1.40936631e+00
  1.40936631e+00  2.34002123e+00  4.42596777e+00  4.42596777e+00
  6.57777826e+00  8.43966808e+00  8.43966808e+00  8.43966808e+00
  1.10881804e+01  1.10881804e+01  1.71215799e+01  2.49369147e+01
  2.49369147e+01  2.49369147e+01  2.68090021e+01  2.68090021e+01
  4.37645745e+01  7.72418174e+01  7.72418174e+01  1.09058327e+02
  2.29472913e+02  2.29472913e+02  2.63343996e+02  3.84728434e+02
  3.84728434e+02  3.84728434e+02  6.30855368e+02  6.87354083e+02
  6.87354083e+02  1.54523111e+03]
multiplicity <S^2> = 3.7504026  2S+1 = 4.0002013
E1 = -98.57932135042338  Ecoul = 24.20907332556895
cycle= 2 E= -74.3702480248544  delta_E= -0.156  |g|= 0.15  |ddm|= 0.389
    CPU time for cycle= 2      3.85 sec, wall time      0.97 sec
diis-norm(errvec)=0.21233
diis-c [-0.03607622  0.11260171  0.88739829]
alpha HOMO (B2u) = -1.33415547613077  LUMO (Ag) = -0.148049118189614
alpha irrep_nelec = [2, 0, 0, 0, 0, 1, 1, 1]
beta  irrep_nelec = [2, 0, 0, 0, 0, 0, 0, 0]
alpha-Ag nocc = 2  HOMO = -2.0792328557196  LUMO = -0.148049118189614
   mo_energy = [-2.14314146e+01 -2.07923286e+00 -1.48049118e-01  2.42101142e-01
  4.06125976e-01  4.06125976e-01  1.55782529e+00  1.79955729e+00
  1.79955729e+00  4.01343273e+00  4.01343273e+00  4.01343273e+00
  5.14263849e+00  5.14263849e+00  5.47656683e+00  1.16886120e+01
  1.16886120e+01  1.16886120e+01  1.30636758e+01  1.30636758e+01
  1.65098955e+01  1.92675253e+01  1.92675253e+01  1.92675253e+01
  1.92675253e+01  3.02302933e+01  3.02302933e+01  3.02302933e+01
  3.21173519e+01  3.21173519e+01  4.49713064e+01  7.96665641e+01
  7.96665641e+01  1.11222711e+02  1.22228674e+02  1.22228674e+02
  1.22228674e+02  1.96719989e+02  1.96719989e+02  2.55429821e+02
  4.50848524e+02  4.50848524e+02  4.50848524e+02  4.83651539e+02
  4.83651539e+02  5.66945104e+02  1.22159969e+03  1.22159969e+03
  1.26865636e+03  4.06596128e+03]
alpha-B1g nocc = 0
   mo_energy = [4.06125976e-01 1.79955729e+00 4.01343273e+00 4.01343273e+00
 5.14263849e+00 1.16886120e+01 1.16886120e+01 1.30636758e+01
 1.92675253e+01 1.92675253e+01 1.92675253e+01 3.02302933e+01
 3.02302933e+01 3.21173519e+01 7.96665641e+01 1.22228674e+02
 1.22228674e+02 1.96719989e+02 4.50848524e+02 4.50848524e+02
 4.83651539e+02 1.22159969e+03]
alpha-B2g nocc = 0
   mo_energy = [4.06125976e-01 1.79955729e+00 4.01343273e+00 4.01343273e+00
 5.14263849e+00 1.16886120e+01 1.16886120e+01 1.30636758e+01
 1.92675253e+01 1.92675253e+01 1.92675253e+01 3.02302933e+01
 3.02302933e+01 3.21173519e+01 7.96665641e+01 1.22228674e+02
 1.22228674e+02 1.96719989e+02 4.50848524e+02 4.50848524e+02
 4.83651539e+02 1.22159969e+03]
alpha-B3g nocc = 0
   mo_energy = [4.06125976e-01 1.79955729e+00 4.01343273e+00 4.01343273e+00
 5.14263849e+00 1.16886120e+01 1.16886120e+01 1.30636758e+01
 1.92675253e+01 1.92675253e+01 1.92675253e+01 3.02302933e+01
 3.02302933e+01 3.21173519e+01 7.96665641e+01 1.22228674e+02
 1.22228674e+02 1.96719989e+02 4.50848524e+02 4.50848524e+02
 4.83651539e+02 1.22159969e+03]
alpha-Au nocc = 0
   mo_energy = [  1.40950813   4.4534811    8.50307399   8.50307399  11.2029173
  25.13566988  25.13566988  27.05977842  77.64037307 229.95308567
 385.22040558 385.22040558 687.87407945]
alpha-B1u nocc = 1  HOMO = -1.33415547613097  LUMO = -0.0286308893064722
   mo_energy = [-1.33415548e+00 -2.86308893e-02  6.04309487e-01  1.40950813e+00
  1.40950813e+00  2.34396882e+00  4.45348110e+00  4.45348110e+00
  6.67927974e+00  8.50307399e+00  8.50307399e+00  8.50307399e+00
  1.12029173e+01  1.12029173e+01  1.73563087e+01  2.51356699e+01
  2.51356699e+01  2.51356699e+01  2.70597784e+01  2.70597784e+01
  4.41241571e+01  7.76403731e+01  7.76403731e+01  1.09502369e+02
  2.29953086e+02  2.29953086e+02  2.63836479e+02  3.85220406e+02
  3.85220406e+02  3.85220406e+02  6.31375651e+02  6.87874079e+02
  6.87874079e+02  1.54576877e+03]
alpha-B2u nocc = 1  HOMO = -1.33415547613077  LUMO = -0.0286308893063895
   mo_energy = [-1.33415548e+00 -2.86308893e-02  6.04309487e-01  1.40950813e+00
  1.40950813e+00  2.34396882e+00  4.45348110e+00  4.45348110e+00
  6.67927974e+00  8.50307399e+00  8.50307399e+00  8.50307399e+00
  1.12029173e+01  1.12029173e+01  1.73563087e+01  2.51356699e+01
  2.51356699e+01  2.51356699e+01  2.70597784e+01  2.70597784e+01
  4.41241571e+01  7.76403731e+01  7.76403731e+01  1.09502369e+02
  2.29953086e+02  2.29953086e+02  2.63836479e+02  3.85220406e+02
  3.85220406e+02  3.85220406e+02  6.31375651e+02  6.87874079e+02
  6.87874079e+02  1.54576877e+03]
alpha-B3u nocc = 1  HOMO = -1.33415547613078  LUMO = -0.0286308893066113
   mo_energy = [-1.33415548e+00 -2.86308893e-02  6.04309487e-01  1.40950813e+00
  1.40950813e+00  2.34396882e+00  4.45348110e+00  4.45348110e+00
  6.67927974e+00  8.50307399e+00  8.50307399e+00  8.50307399e+00
  1.12029173e+01  1.12029173e+01  1.73563087e+01  2.51356699e+01
  2.51356699e+01  2.51356699e+01  2.70597784e+01  2.70597784e+01
  4.41241571e+01  7.76403731e+01  7.76403731e+01  1.09502369e+02
  2.29953086e+02  2.29953086e+02  2.63836479e+02  3.85220406e+02
  3.85220406e+02  3.85220406e+02  6.31375651e+02  6.87874079e+02
  6.87874079e+02  1.54576877e+03]
beta-Ag nocc = 2  HOMO = -1.56648496750801  LUMO = -0.132854476083245
   mo_energy = [-2.13063218e+01 -1.56648497e+00 -1.32854476e-01  2.79741302e-01
  4.58795703e-01  4.58795703e-01  1.64033656e+00  1.93939782e+00
  1.93939782e+00  4.04746288e+00  4.04746288e+00  4.04746288e+00
  5.30501934e+00  5.30501934e+00  5.58411663e+00  1.17597486e+01
  1.17597486e+01  1.17597486e+01  1.31951428e+01  1.31951428e+01
  1.65994500e+01  1.93085806e+01  1.93085806e+01  1.93085806e+01
  1.93085806e+01  3.03061321e+01  3.03061321e+01  3.03061321e+01
  3.22015705e+01  3.22015705e+01  4.50243805e+01  7.97096989e+01
  7.97096989e+01  1.11248807e+02  1.22265791e+02  1.22265791e+02
  1.22265791e+02  1.96737958e+02  1.96737958e+02  2.55441347e+02
  4.50857352e+02  4.50857352e+02  4.50857352e+02  4.83657786e+02
  4.83657786e+02  5.66949660e+02  1.22160137e+03  1.22160137e+03
  1.26865785e+03  4.06596156e+03]
beta-B1g nocc = 0
   mo_energy = [4.58795703e-01 1.93939782e+00 4.04746288e+00 4.04746288e+00
 5.30501934e+00 1.17597486e+01 1.17597486e+01 1.31951428e+01
 1.93085806e+01 1.93085806e+01 1.93085806e+01 3.03061321e+01
 3.03061321e+01 3.22015705e+01 7.97096989e+01 1.22265791e+02
 1.22265791e+02 1.96737958e+02 4.50857352e+02 4.50857352e+02
 4.83657786e+02 1.22160137e+03]
beta-B2g nocc = 0
   mo_energy = [4.58795703e-01 1.93939782e+00 4.04746288e+00 4.04746288e+00
 5.30501934e+00 1.17597486e+01 1.17597486e+01 1.31951428e+01
 1.93085806e+01 1.93085806e+01 1.93085806e+01 3.03061321e+01
 3.03061321e+01 3.22015705e+01 7.97096989e+01 1.22265791e+02
 1.22265791e+02 1.96737958e+02 4.50857352e+02 4.50857352e+02
 4.83657786e+02 1.22160137e+03]
beta-B3g nocc = 0
   mo_energy = [4.58795703e-01 1.93939782e+00 4.04746288e+00 4.04746288e+00
 5.30501934e+00 1.17597486e+01 1.17597486e+01 1.31951428e+01
 1.93085806e+01 1.93085806e+01 1.93085806e+01 3.03061321e+01
 3.03061321e+01 3.22015705e+01 7.97096989e+01 1.22265791e+02
 1.22265791e+02 1.96737958e+02 4.50857352e+02 4.50857352e+02
 4.83657786e+02 1.22160137e+03]
beta-Au nocc = 0
   mo_energy = [  1.43688748   4.53229056   8.53910662   8.53910662  11.30754067
  25.19665715  25.19665715  27.1499097   77.6903871  229.97052053
 385.23241431 385.23241431 687.87844002]
beta-B1u nocc = 0
   mo_energy = [-3.99043908e-01  1.81112657e-02  7.06911130e-01  1.43688748e+00
  1.43688748e+00  2.47692492e+00  4.53229056e+00  4.53229056e+00
  6.80509166e+00  8.53910662e+00  8.53910662e+00  8.53910662e+00
  1.13075407e+01  1.13075407e+01  1.74514998e+01  2.51966572e+01
  2.51966572e+01  2.51966572e+01  2.71499097e+01  2.71499097e+01
  4.41812862e+01  7.76903871e+01  7.76903871e+01  1.09530007e+02
  2.29970521e+02  2.29970521e+02  2.63847804e+02  3.85232414e+02
  3.85232414e+02  3.85232414e+02  6.31379592e+02  6.87878440e+02
  6.87878440e+02  1.54576984e+03]
beta-B2u nocc = 0
   mo_energy = [-3.99043908e-01  1.81112657e-02  7.06911130e-01  1.43688748e+00
  1.43688748e+00  2.47692492e+00  4.53229056e+00  4.53229056e+00
  6.80509166e+00  8.53910662e+00  8.53910662e+00  8.53910662e+00
  1.13075407e+01  1.13075407e+01  1.74514998e+01  2.51966572e+01
  2.51966572e+01  2.51966572e+01  2.71499097e+01  2.71499097e+01
  4.41812862e+01  7.76903871e+01  7.76903871e+01  1.09530007e+02
  2.29970521e+02  2.29970521e+02  2.63847804e+02  3.85232414e+02
  3.85232414e+02  3.85232414e+02  6.31379592e+02  6.87878440e+02
  6.87878440e+02  1.54576984e+03]
beta-B3u nocc = 0
   mo_energy = [-3.99043908e-01  1.81112657e-02  7.06911130e-01  1.43688748e+00
  1.43688748e+00  2.47692492e+00  4.53229056e+00  4.53229056e+00
  6.80509166e+00  8.53910662e+00  8.53910662e+00  8.53910662e+00
  1.13075407e+01  1.13075407e+01  1.74514998e+01  2.51966572e+01
  2.51966572e+01  2.51966572e+01  2.71499097e+01  2.71499097e+01
  4.41812862e+01  7.76903871e+01  7.76903871e+01  1.09530007e+02
  2.29970521e+02  2.29970521e+02  2.63847804e+02  3.85232414e+02
  3.85232414e+02  3.85232414e+02  6.31379592e+02  6.87878440e+02
  6.87878440e+02  1.54576984e+03]
multiplicity <S^2> = 3.7526555  2S+1 = 4.0013275
E1 = -98.44644218133675  Ecoul = 24.070176810946293
cycle= 3 E= -74.3762653703905  delta_E= -0.00602  |g|= 0.0347  |ddm|= 0.125
    CPU time for cycle= 3      3.85 sec, wall time      0.97 sec
diis-norm(errvec)=0.049012
diis-c [-9.63826358e-04 -3.45796241e-02 -2.17229215e-01  1.25180884e+00]
alpha HOMO (B3u) = -1.32862934404505  LUMO (Ag) = -0.144785441741431
alpha irrep_nelec = [2, 0, 0, 0, 0, 1, 1, 1]
beta  irrep_nelec = [2, 0, 0, 0, 0, 0, 0, 0]
alpha-Ag nocc = 2  HOMO = -2.06914143965614  LUMO = -0.144785441741431
   mo_energy = [-2.14079923e+01 -2.06914144e+00 -1.44785442e-01  2.47058640e-01
  4.15115719e-01  4.15115719e-01  1.56684788e+00  1.80926372e+00
  1.80926372e+00  4.02487167e+00  4.02487167e+00  4.02487167e+00
  5.15731508e+00  5.15731508e+00  5.49297925e+00  1.17085132e+01
  1.17085132e+01  1.17085132e+01  1.30856748e+01  1.30856748e+01
  1.65331249e+01  1.92889723e+01  1.92889723e+01  1.92889723e+01
  1.92889723e+01  3.02564782e+01  3.02564782e+01  3.02564782e+01
  3.21437939e+01  3.21437939e+01  4.49970244e+01  7.96937020e+01
  7.96937020e+01  1.11247306e+02  1.22257457e+02  1.22257457e+02
  1.22257457e+02  1.96744173e+02  1.96744173e+02  2.55451108e+02
  4.50870854e+02  4.50870854e+02  4.50870854e+02  4.83670197e+02
  4.83670197e+02  5.66961742e+02  1.22161161e+03  1.22161161e+03
  1.26866748e+03  4.06596689e+03]
alpha-B1g nocc = 0
   mo_energy = [4.15115719e-01 1.80926372e+00 4.02487167e+00 4.02487167e+00
 5.15731508e+00 1.17085132e+01 1.17085132e+01 1.30856748e+01
 1.92889723e+01 1.92889723e+01 1.92889723e+01 3.02564782e+01
 3.02564782e+01 3.21437939e+01 7.96937020e+01 1.22257457e+02
 1.22257457e+02 1.96744173e+02 4.50870854e+02 4.50870854e+02
 4.83670197e+02 1.22161161e+03]
alpha-B2g nocc = 0
   mo_energy = [4.15115719e-01 1.80926372e+00 4.02487167e+00 4.02487167e+00
 5.15731508e+00 1.17085132e+01 1.17085132e+01 1.30856748e+01
 1.92889723e+01 1.92889723e+01 1.92889723e+01 3.02564782e+01
 3.02564782e+01 3.21437939e+01 7.96937020e+01 1.22257457e+02
 1.22257457e+02 1.96744173e+02 4.50870854e+02 4.50870854e+02
 4.83670197e+02 1.22161161e+03]
alpha-B3g nocc = 0
   mo_energy = [4.15115719e-01 1.80926372e+00 4.02487167e+00 4.02487167e+00
 5.15731508e+00 1.17085132e+01 1.17085132e+01 1.30856748e+01
 1.92889723e+01 1.92889723e+01 1.92889723e+01 3.02564782e+01
 3.02564782e+01 3.21437939e+01 7.96937020e+01 1.22257457e+02
 1.22257457e+02 1.96744173e+02 4.50870854e+02 4.50870854e+02
 4.83670197e+02 1.22161161e+03]
alpha-Au nocc = 0
   mo_energy = [  1.4171622    4.46713676   8.51849244   8.51849244  11.2230083
  25.16030709  25.16030709  27.08563449  77.66870315 229.97791308
 385.24595683 385.24595683 687.89109503]
alpha-B1u nocc = 1  HOMO = -1.32862934404524  LUMO = -0.0261496989606777
   mo_energy = [-1.32862934e+00 -2.61496990e-02  6.09788002e-01  1.41716220e+00
  1.41716220e+00  2.35469705e+00  4.46713676e+00  4.46713676e+00
  6.69672008e+00  8.51849244e+00  8.51849244e+00  8.51849244e+00
  1.12230083e+01  1.12230083e+01  1.73795876e+01  2.51603071e+01
  2.51603071e+01  2.51603071e+01  2.70856345e+01  2.70856345e+01
  4.41500759e+01  7.76687031e+01  7.76687031e+01  1.09527196e+02
  2.29977913e+02  2.29977913e+02  2.63857427e+02  3.85245957e+02
  3.85245957e+02  3.85245957e+02  6.31391178e+02  6.87891095e+02
  6.87891095e+02  1.54577840e+03]
alpha-B2u nocc = 1  HOMO = -1.32862934404517  LUMO = -0.0261496989610222
   mo_energy = [-1.32862934e+00 -2.61496990e-02  6.09788002e-01  1.41716220e+00
  1.41716220e+00  2.35469705e+00  4.46713676e+00  4.46713676e+00
  6.69672008e+00  8.51849244e+00  8.51849244e+00  8.51849244e+00
  1.12230083e+01  1.12230083e+01  1.73795876e+01  2.51603071e+01
  2.51603071e+01  2.51603071e+01  2.70856345e+01  2.70856345e+01
  4.41500759e+01  7.76687031e+01  7.76687031e+01  1.09527196e+02
  2.29977913e+02  2.29977913e+02  2.63857427e+02  3.85245957e+02
  3.85245957e+02  3.85245957e+02  6.31391178e+02  6.87891095e+02
  6.87891095e+02  1.54577840e+03]
alpha-B3u nocc = 1  HOMO = -1.32862934404505  LUMO = -0.0261496989606499
   mo_energy = [-1.32862934e+00 -2.61496990e-02  6.09788002e-01  1.41716220e+00
  1.41716220e+00  2.35469705e+00  4.46713676e+00  4.46713676e+00
  6.69672008e+00  8.51849244e+00  8.51849244e+00  8.51849244e+00
  1.12230083e+01  1.12230083e+01  1.73795876e+01  2.51603071e+01
  2.51603071e+01  2.51603071e+01  2.70856345e+01  2.70856345e+01
  4.41500759e+01  7.76687031e+01  7.76687031e+01  1.09527196e+02
  2.29977913e+02  2.29977913e+02  2.63857427e+02  3.85245957e+02
  3.85245957e+02  3.85245957e+02  6.31391178e+02  6.87891095e+02
  6.87891095e+02  1.54577840e+03]
beta-Ag nocc = 2  HOMO = -1.53315977543025  LUMO = -0.130885764417747
   mo_energy = [-2.12785675e+01 -1.53315978e+00 -1.30885764e-01  2.85582086e-01
  4.62046649e-01  4.62046649e-01  1.65495753e+00  1.95206077e+00
  1.95206077e+00  4.05725230e+00  4.05725230e+00  4.05725230e+00
  5.32733567e+00  5.32733567e+00  5.60774641e+00  1.17824469e+01
  1.17824469e+01  1.17824469e+01  1.32225924e+01  1.32225924e+01
  1.66280192e+01  1.93313374e+01  1.93313374e+01  1.93313374e+01
  1.93313374e+01  3.03358877e+01  3.03358877e+01  3.03358877e+01
  3.22308647e+01  3.22308647e+01  4.50530299e+01  7.97381461e+01
  7.97381461e+01  1.11274909e+02  1.22295556e+02  1.22295556e+02
  1.22295556e+02  1.96762804e+02  1.96762804e+02  2.55463481e+02
  4.50879942e+02  4.50879942e+02  4.50879942e+02  4.83676876e+02
  4.83676876e+02  5.66966834e+02  1.22161360e+03  1.22161360e+03
  1.26866933e+03  4.06596738e+03]
beta-B1g nocc = 0
   mo_energy = [4.62046649e-01 1.95206077e+00 4.05725230e+00 4.05725230e+00
 5.32733567e+00 1.17824469e+01 1.17824469e+01 1.32225924e+01
 1.93313374e+01 1.93313374e+01 1.93313374e+01 3.03358877e+01
 3.03358877e+01 3.22308647e+01 7.97381461e+01 1.22295556e+02
 1.22295556e+02 1.96762804e+02 4.50879942e+02 4.50879942e+02
 4.83676876e+02 1.22161360e+03]
beta-B2g nocc = 0
   mo_energy = [4.62046649e-01 1.95206077e+00 4.05725230e+00 4.05725230e+00
 5.32733567e+00 1.17824469e+01 1.17824469e+01 1.32225924e+01
 1.93313374e+01 1.93313374e+01 1.93313374e+01 3.03358877e+01
 3.03358877e+01 3.22308647e+01 7.97381461e+01 1.22295556e+02
 1.22295556e+02 1.96762804e+02 4.50879942e+02 4.50879942e+02
 4.83676876e+02 1.22161360e+03]
beta-B3g nocc = 0
   mo_energy = [4.62046649e-01 1.95206077e+00 4.05725230e+00 4.05725230e+00
 5.32733567e+00 1.17824469e+01 1.17824469e+01 1.32225924e+01
 1.93313374e+01 1.93313374e+01 1.93313374e+01 3.03358877e+01
 3.03358877e+01 3.22308647e+01 7.97381461e+01 1.22295556e+02
 1.22295556e+02 1.96762804e+02 4.50879942e+02 4.50879942e+02
 4.83676876e+02 1.22161360e+03]
beta-Au nocc = 0
   mo_energy = [  1.44132843   4.54732483   8.55430189   8.55430189  11.33259676
  25.22421613  25.22421613  27.17960936  77.72014157 229.99582444
 385.25819689 385.25819689 687.89576702]
beta-B1u nocc = 0
   mo_energy = [-3.81104201e-01  2.24521423e-02  7.15995988e-01  1.44132843e+00
  1.44132843e+00  2.49155630e+00  4.54732483e+00  4.54732483e+00
  6.82676247e+00  8.55430189e+00  8.55430189e+00  8.55430189e+00
  1.13325968e+01  1.13325968e+01  1.74786595e+01  2.52242161e+01
  2.52242161e+01  2.52242161e+01  2.71796094e+01  2.71796094e+01
[...]
   mo_energy = [4.61271111e-01 1.95093583e+00 4.05613848e+00 4.05613848e+00
 5.32635753e+00 1.17807559e+01 1.17807559e+01 1.32213015e+01
 1.93294719e+01 1.93294719e+01 1.93294719e+01 3.03341923e+01
 3.03341923e+01 3.22295147e+01 7.97370905e+01 1.22294534e+02
 1.22294534e+02 1.96762006e+02 4.50879163e+02 4.50879163e+02
 4.83676095e+02 1.22161266e+03]
beta-Au nocc = 0
   mo_energy = [  1.44059501   4.54600001   8.5528744    8.5528744   11.33111384
  25.22229819  25.22229819  27.17810983  77.71901272 229.99501954
 385.25742084 385.25742084 687.89493539]
beta-B1u nocc = 0
   mo_energy = [-3.82240794e-01  2.24656606e-02  7.15769419e-01  1.44059501e+00
  1.44059501e+00  2.49073101e+00  4.54600001e+00  4.54600001e+00
  6.82565083e+00  8.55287440e+00  8.55287440e+00  8.55287440e+00
  1.13311138e+01  1.13311138e+01  1.74775002e+01  2.52222982e+01
  2.52222982e+01  2.52222982e+01  2.71781098e+01  2.71781098e+01
  4.42087177e+01  7.77190127e+01  7.77190127e+01  1.09555425e+02
  2.29995020e+02  2.29995020e+02  2.63868840e+02  3.85257421e+02
  3.85257421e+02  3.85257421e+02  6.31394821e+02  6.87894935e+02
  6.87894935e+02  1.54577881e+03]
beta-B2u nocc = 0
   mo_energy = [-3.82240794e-01  2.24656606e-02  7.15769419e-01  1.44059501e+00
  1.44059501e+00  2.49073101e+00  4.54600001e+00  4.54600001e+00
  6.82565083e+00  8.55287440e+00  8.55287440e+00  8.55287440e+00
  1.13311138e+01  1.13311138e+01  1.74775002e+01  2.52222982e+01
  2.52222982e+01  2.52222982e+01  2.71781098e+01  2.71781098e+01
  4.42087177e+01  7.77190127e+01  7.77190127e+01  1.09555425e+02
  2.29995020e+02  2.29995020e+02  2.63868840e+02  3.85257421e+02
  3.85257421e+02  3.85257421e+02  6.31394821e+02  6.87894935e+02
  6.87894935e+02  1.54577881e+03]
beta-B3u nocc = 0
   mo_energy = [-3.82240794e-01  2.24656606e-02  7.15769419e-01  1.44059501e+00
  1.44059501e+00  2.49073101e+00  4.54600001e+00  4.54600001e+00
  6.82565083e+00  8.55287440e+00  8.55287440e+00  8.55287440e+00
  1.13311138e+01  1.13311138e+01  1.74775002e+01  2.52222982e+01
  2.52222982e+01  2.52222982e+01  2.71781098e+01  2.71781098e+01
  4.42087177e+01  7.77190127e+01  7.77190127e+01  1.09555425e+02
  2.29995020e+02  2.29995020e+02  2.63868840e+02  3.85257421e+02
  3.85257421e+02  3.85257421e+02  6.31394821e+02  6.87894935e+02
  6.87894935e+02  1.54577881e+03]
multiplicity <S^2> = 3.7555576  2S+1 = 4.0027778
E1 = -98.47083116837182  Ecoul = 24.093718098628482
cycle= 33 E= -74.3771130697433  delta_E= 2.84e-14  |g|= 1.77e-11  |ddm|= 1.57e-11
    CPU time for cycle= 33      3.86 sec, wall time      0.97 sec
diis-norm(errvec)=2.61596e-11
Linear dependence found in DIIS error vectors.
diis-c [-2.89052492e-16  1.25000000e-01  1.25000000e-01  1.25000000e-01
  1.25000000e-01  1.25000000e-01  1.25000000e-01  1.25000000e-01
  1.25000000e-01]
alpha HOMO (B2u) = -1.3307844001387  LUMO (Ag) = -0.145027992188976
alpha irrep_nelec = [2, 0, 0, 0, 0, 1, 1, 1]
beta  irrep_nelec = [2, 0, 0, 0, 0, 0, 0, 0]
alpha-Ag nocc = 2  HOMO = -2.07155489213732  LUMO = -0.145027992188976
   mo_energy = [-2.14107785e+01 -2.07155489e+00 -1.45027992e-01  2.46665465e-01
  4.15051171e-01  4.15051171e-01  1.56583267e+00  1.80836941e+00
  1.80836941e+00  4.02421591e+00  4.02421591e+00  4.02421591e+00
  5.15526403e+00  5.15526403e+00  5.49103997e+00  1.17065842e+01
  1.17065842e+01  1.17065842e+01  1.30832913e+01  1.30832913e+01
  1.65307775e+01  1.92870585e+01  1.92870585e+01  1.92870585e+01
  1.92870585e+01  3.02540913e+01  3.02540913e+01  3.02540913e+01
  3.21417899e+01  3.21417899e+01  4.49949475e+01  7.96922455e+01
  7.96922455e+01  1.11245649e+02  1.22256178e+02  1.22256178e+02
  1.22256178e+02  1.96742990e+02  1.96742990e+02  2.55449713e+02
  4.50869892e+02  4.50869892e+02  4.50869892e+02  4.83669020e+02
  4.83669020e+02  5.66960429e+02  1.22161032e+03  1.22161032e+03
  1.26866612e+03  4.06596546e+03]
alpha-B1g nocc = 0
   mo_energy = [4.15051171e-01 1.80836941e+00 4.02421591e+00 4.02421591e+00
 5.15526403e+00 1.17065842e+01 1.17065842e+01 1.30832913e+01
 1.92870585e+01 1.92870585e+01 1.92870585e+01 3.02540913e+01
 3.02540913e+01 3.21417899e+01 7.96922455e+01 1.22256178e+02
 1.22256178e+02 1.96742990e+02 4.50869892e+02 4.50869892e+02
 4.83669020e+02 1.22161032e+03]
alpha-B2g nocc = 0
   mo_energy = [4.15051171e-01 1.80836941e+00 4.02421591e+00 4.02421591e+00
 5.15526403e+00 1.17065842e+01 1.17065842e+01 1.30832913e+01
 1.92870585e+01 1.92870585e+01 1.92870585e+01 3.02540913e+01
 3.02540913e+01 3.21417899e+01 7.96922455e+01 1.22256178e+02
 1.22256178e+02 1.96742990e+02 4.50869892e+02 4.50869892e+02
 4.83669020e+02 1.22161032e+03]
alpha-B3g nocc = 0
   mo_energy = [4.15051171e-01 1.80836941e+00 4.02421591e+00 4.02421591e+00
 5.15526403e+00 1.17065842e+01 1.17065842e+01 1.30832913e+01
 1.92870585e+01 1.92870585e+01 1.92870585e+01 3.02540913e+01
 3.02540913e+01 3.21417899e+01 7.96922455e+01 1.22256178e+02
 1.22256178e+02 1.96742990e+02 4.50869892e+02 4.50869892e+02
 4.83669020e+02 1.22161032e+03]
alpha-Au nocc = 0
   mo_energy = [  1.41692868   4.46600319   8.51732776   8.51732776  11.22080172
  25.15795608  25.15795608  27.08332761  77.66721548 229.97686957
 385.24507212 385.24507212 687.88995992]
alpha-B1u nocc = 1  HOMO = -1.33078440013879  LUMO = -0.0266116368555814
   mo_energy = [-1.33078440e+00 -2.66116369e-02  6.08959324e-01  1.41692868e+00
  1.41692868e+00  2.35333726e+00  4.46600319e+00  4.46600319e+00
  6.69483592e+00  8.51732776e+00  8.51732776e+00  8.51732776e+00
  1.12208017e+01  1.12208017e+01  1.73775222e+01  2.51579561e+01
  2.51579561e+01  2.51579561e+01  2.70833276e+01  2.70833276e+01
  4.41482418e+01  7.76672155e+01  7.76672155e+01  1.09525692e+02
  2.29976870e+02  2.29976870e+02  2.63856102e+02  3.85245072e+02
  3.85245072e+02  3.85245072e+02  6.31389874e+02  6.87889960e+02
  6.87889960e+02  1.54577703e+03]
alpha-B2u nocc = 1  HOMO = -1.3307844001387  LUMO = -0.0266116368551616
   mo_energy = [-1.33078440e+00 -2.66116369e-02  6.08959324e-01  1.41692868e+00
  1.41692868e+00  2.35333726e+00  4.46600319e+00  4.46600319e+00
  6.69483592e+00  8.51732776e+00  8.51732776e+00  8.51732776e+00
  1.12208017e+01  1.12208017e+01  1.73775222e+01  2.51579561e+01
  2.51579561e+01  2.51579561e+01  2.70833276e+01  2.70833276e+01
  4.41482418e+01  7.76672155e+01  7.76672155e+01  1.09525692e+02
  2.29976870e+02  2.29976870e+02  2.63856102e+02  3.85245072e+02
  3.85245072e+02  3.85245072e+02  6.31389874e+02  6.87889960e+02
  6.87889960e+02  1.54577703e+03]
alpha-B3u nocc = 1  HOMO = -1.33078440013877  LUMO = -0.0266116368554036
   mo_energy = [-1.33078440e+00 -2.66116369e-02  6.08959324e-01  1.41692868e+00
  1.41692868e+00  2.35333726e+00  4.46600319e+00  4.46600319e+00
  6.69483592e+00  8.51732776e+00  8.51732776e+00  8.51732776e+00
  1.12208017e+01  1.12208017e+01  1.73775222e+01  2.51579561e+01
  2.51579561e+01  2.51579561e+01  2.70833276e+01  2.70833276e+01
  4.41482418e+01  7.76672155e+01  7.76672155e+01  1.09525692e+02
  2.29976870e+02  2.29976870e+02  2.63856102e+02  3.85245072e+02
  3.85245072e+02  3.85245072e+02  6.31389874e+02  6.87889960e+02
  6.87889960e+02  1.54577703e+03]
beta-Ag nocc = 2  HOMO = -1.53066782511421  LUMO = -0.130751046037444
   mo_energy = [-2.12780406e+01 -1.53066783e+00 -1.30751046e-01  2.85884924e-01
  4.61271111e-01  4.61271111e-01  1.65523480e+00  1.95093583e+00
  1.95093583e+00  4.05613848e+00  4.05613848e+00  4.05613848e+00
  5.32635753e+00  5.32635753e+00  5.60750161e+00  1.17807559e+01
  1.17807559e+01  1.17807559e+01  1.32213015e+01  1.32213015e+01
  1.66272902e+01  1.93294719e+01  1.93294719e+01  1.93294719e+01
  1.93294719e+01  3.03341923e+01  3.03341923e+01  3.03341923e+01
  3.22295147e+01  3.22295147e+01  4.50522192e+01  7.97370905e+01
  7.97370905e+01  1.11274200e+02  1.22294534e+02  1.22294534e+02
  1.22294534e+02  1.96762006e+02  1.96762006e+02  2.55462802e+02
  4.50879163e+02  4.50879163e+02  4.50879163e+02  4.83676095e+02
  4.83676095e+02  5.66966063e+02  1.22161266e+03  1.22161266e+03
  1.26866839e+03  4.06596621e+03]
beta-B1g nocc = 0
   mo_energy = [4.61271111e-01 1.95093583e+00 4.05613848e+00 4.05613848e+00
 5.32635753e+00 1.17807559e+01 1.17807559e+01 1.32213015e+01
 1.93294719e+01 1.93294719e+01 1.93294719e+01 3.03341923e+01
 3.03341923e+01 3.22295147e+01 7.97370905e+01 1.22294534e+02
 1.22294534e+02 1.96762006e+02 4.50879163e+02 4.50879163e+02
 4.83676095e+02 1.22161266e+03]
beta-B2g nocc = 0
   mo_energy = [4.61271111e-01 1.95093583e+00 4.05613848e+00 4.05613848e+00
 5.32635753e+00 1.17807559e+01 1.17807559e+01 1.32213015e+01
 1.93294719e+01 1.93294719e+01 1.93294719e+01 3.03341923e+01
 3.03341923e+01 3.22295147e+01 7.97370905e+01 1.22294534e+02
 1.22294534e+02 1.96762006e+02 4.50879163e+02 4.50879163e+02
 4.83676095e+02 1.22161266e+03]
beta-B3g nocc = 0
   mo_energy = [4.61271111e-01 1.95093583e+00 4.05613848e+00 4.05613848e+00
 5.32635753e+00 1.17807559e+01 1.17807559e+01 1.32213015e+01
 1.93294719e+01 1.93294719e+01 1.93294719e+01 3.03341923e+01
 3.03341923e+01 3.22295147e+01 7.97370905e+01 1.22294534e+02
 1.22294534e+02 1.96762006e+02 4.50879163e+02 4.50879163e+02
 4.83676095e+02 1.22161266e+03]
beta-Au nocc = 0
   mo_energy = [  1.44059501   4.54600001   8.5528744    8.5528744   11.33111384
  25.22229819  25.22229819  27.17810983  77.71901272 229.99501954
 385.25742084 385.25742084 687.89493539]
beta-B1u nocc = 0
   mo_energy = [-3.82240794e-01  2.24656606e-02  7.15769419e-01  1.44059501e+00
  1.44059501e+00  2.49073101e+00  4.54600001e+00  4.54600001e+00
  6.82565083e+00  8.55287440e+00  8.55287440e+00  8.55287440e+00
  1.13311138e+01  1.13311138e+01  1.74775002e+01  2.52222982e+01
  2.52222982e+01  2.52222982e+01  2.71781098e+01  2.71781098e+01
  4.42087177e+01  7.77190127e+01  7.77190127e+01  1.09555425e+02
  2.29995020e+02  2.29995020e+02  2.63868840e+02  3.85257421e+02
  3.85257421e+02  3.85257421e+02  6.31394821e+02  6.87894935e+02
  6.87894935e+02  1.54577881e+03]
beta-B2u nocc = 0
   mo_energy = [-3.82240794e-01  2.24656606e-02  7.15769419e-01  1.44059501e+00
  1.44059501e+00  2.49073101e+00  4.54600001e+00  4.54600001e+00
  6.82565083e+00  8.55287440e+00  8.55287440e+00  8.55287440e+00
  1.13311138e+01  1.13311138e+01  1.74775002e+01  2.52222982e+01
  2.52222982e+01  2.52222982e+01  2.71781098e+01  2.71781098e+01
  4.42087177e+01  7.77190127e+01  7.77190127e+01  1.09555425e+02
  2.29995020e+02  2.29995020e+02  2.63868840e+02  3.85257421e+02
  3.85257421e+02  3.85257421e+02  6.31394821e+02  6.87894935e+02
  6.87894935e+02  1.54577881e+03]
beta-B3u nocc = 0
   mo_energy = [-3.82240794e-01  2.24656606e-02  7.15769419e-01  1.44059501e+00
  1.44059501e+00  2.49073101e+00  4.54600001e+00  4.54600001e+00
  6.82565083e+00  8.55287440e+00  8.55287440e+00  8.55287440e+00
  1.13311138e+01  1.13311138e+01  1.74775002e+01  2.52222982e+01
  2.52222982e+01  2.52222982e+01  2.71781098e+01  2.71781098e+01
  4.42087177e+01  7.77190127e+01  7.77190127e+01  1.09555425e+02
  2.29995020e+02  2.29995020e+02  2.63868840e+02  3.85257421e+02
  3.85257421e+02  3.85257421e+02  6.31394821e+02  6.87894935e+02
  6.87894935e+02  1.54577881e+03]
multiplicity <S^2> = 3.7555576  2S+1 = 4.0027778
E1 = -98.47083116837459  Ecoul = 24.093718098631282
cycle= 34 E= -74.3771130697433  delta_E= 2.84e-14  |g|= 1.55e-11  |ddm|= 8.62e-12
    CPU time for cycle= 34      3.86 sec, wall time      0.97 sec
alpha HOMO (B3u) = -1.33078440013914  LUMO (Ag) = -0.145027992188203
alpha irrep_nelec = [2, 0, 0, 0, 0, 1, 1, 1]
beta  irrep_nelec = [2, 0, 0, 0, 0, 0, 0, 0]
alpha-Ag nocc = 2  HOMO = -2.07155489213769  LUMO = -0.145027992188203
   mo_energy = [-2.14107785e+01 -2.07155489e+00 -1.45027992e-01  2.46665465e-01
  4.15051171e-01  4.15051171e-01  1.56583267e+00  1.80836941e+00
  1.80836941e+00  4.02421591e+00  4.02421591e+00  4.02421591e+00
  5.15526403e+00  5.15526403e+00  5.49103997e+00  1.17065842e+01
  1.17065842e+01  1.17065842e+01  1.30832913e+01  1.30832913e+01
  1.65307775e+01  1.92870585e+01  1.92870585e+01  1.92870585e+01
  1.92870585e+01  3.02540913e+01  3.02540913e+01  3.02540913e+01
  3.21417899e+01  3.21417899e+01  4.49949475e+01  7.96922455e+01
  7.96922455e+01  1.11245649e+02  1.22256178e+02  1.22256178e+02
  1.22256178e+02  1.96742990e+02  1.96742990e+02  2.55449713e+02
  4.50869892e+02  4.50869892e+02  4.50869892e+02  4.83669020e+02
  4.83669020e+02  5.66960429e+02  1.22161032e+03  1.22161032e+03
  1.26866612e+03  4.06596546e+03]
alpha-B1g nocc = 0
   mo_energy = [4.15051171e-01 1.80836941e+00 4.02421591e+00 4.02421591e+00
 5.15526403e+00 1.17065842e+01 1.17065842e+01 1.30832913e+01
 1.92870585e+01 1.92870585e+01 1.92870585e+01 3.02540913e+01
 3.02540913e+01 3.21417899e+01 7.96922455e+01 1.22256178e+02
 1.22256178e+02 1.96742990e+02 4.50869892e+02 4.50869892e+02
 4.83669020e+02 1.22161032e+03]
alpha-B2g nocc = 0
   mo_energy = [4.15051171e-01 1.80836941e+00 4.02421591e+00 4.02421591e+00
 5.15526403e+00 1.17065842e+01 1.17065842e+01 1.30832913e+01
 1.92870585e+01 1.92870585e+01 1.92870585e+01 3.02540913e+01
 3.02540913e+01 3.21417899e+01 7.96922455e+01 1.22256178e+02
 1.22256178e+02 1.96742990e+02 4.50869892e+02 4.50869892e+02
 4.83669020e+02 1.22161032e+03]
alpha-B3g nocc = 0
   mo_energy = [4.15051171e-01 1.80836941e+00 4.02421591e+00 4.02421591e+00
 5.15526403e+00 1.17065842e+01 1.17065842e+01 1.30832913e+01
 1.92870585e+01 1.92870585e+01 1.92870585e+01 3.02540913e+01
 3.02540913e+01 3.21417899e+01 7.96922455e+01 1.22256178e+02
 1.22256178e+02 1.96742990e+02 4.50869892e+02 4.50869892e+02
 4.83669020e+02 1.22161032e+03]
alpha-Au nocc = 0
   mo_energy = [  1.41692868   4.46600319   8.51732776   8.51732776  11.22080172
  25.15795608  25.15795608  27.08332761  77.66721548 229.97686957
 385.24507212 385.24507212 687.88995992]
alpha-B1u nocc = 1  HOMO = -1.33078440013929  LUMO = -0.0266116368555381
   mo_energy = [-1.33078440e+00 -2.66116369e-02  6.08959324e-01  1.41692868e+00
  1.41692868e+00  2.35333726e+00  4.46600319e+00  4.46600319e+00
  6.69483592e+00  8.51732776e+00  8.51732776e+00  8.51732776e+00
  1.12208017e+01  1.12208017e+01  1.73775222e+01  2.51579561e+01
  2.51579561e+01  2.51579561e+01  2.70833276e+01  2.70833276e+01
  4.41482418e+01  7.76672155e+01  7.76672155e+01  1.09525692e+02
  2.29976870e+02  2.29976870e+02  2.63856102e+02  3.85245072e+02
  3.85245072e+02  3.85245072e+02  6.31389874e+02  6.87889960e+02
  6.87889960e+02  1.54577703e+03]
alpha-B2u nocc = 1  HOMO = -1.33078440013917  LUMO = -0.0266116368556144
   mo_energy = [-1.33078440e+00 -2.66116369e-02  6.08959324e-01  1.41692868e+00
  1.41692868e+00  2.35333726e+00  4.46600319e+00  4.46600319e+00
  6.69483592e+00  8.51732776e+00  8.51732776e+00  8.51732776e+00
  1.12208017e+01  1.12208017e+01  1.73775222e+01  2.51579561e+01
  2.51579561e+01  2.51579561e+01  2.70833276e+01  2.70833276e+01
  4.41482418e+01  7.76672155e+01  7.76672155e+01  1.09525692e+02
  2.29976870e+02  2.29976870e+02  2.63856102e+02  3.85245072e+02
  3.85245072e+02  3.85245072e+02  6.31389874e+02  6.87889960e+02
  6.87889960e+02  1.54577703e+03]
alpha-B3u nocc = 1  HOMO = -1.33078440013914  LUMO = -0.0266116368553847
   mo_energy = [-1.33078440e+00 -2.66116369e-02  6.08959324e-01  1.41692868e+00
  1.41692868e+00  2.35333726e+00  4.46600319e+00  4.46600319e+00
  6.69483592e+00  8.51732776e+00  8.51732776e+00  8.51732776e+00
  1.12208017e+01  1.12208017e+01  1.73775222e+01  2.51579561e+01
  2.51579561e+01  2.51579561e+01  2.70833276e+01  2.70833276e+01
  4.41482418e+01  7.76672155e+01  7.76672155e+01  1.09525692e+02
  2.29976870e+02  2.29976870e+02  2.63856102e+02  3.85245072e+02
  3.85245072e+02  3.85245072e+02  6.31389874e+02  6.87889960e+02
  6.87889960e+02  1.54577703e+03]
beta-Ag nocc = 2  HOMO = -1.53066782510877  LUMO = -0.130751046037503
   mo_energy = [-2.12780406e+01 -1.53066783e+00 -1.30751046e-01  2.85884924e-01
  4.61271111e-01  4.61271111e-01  1.65523480e+00  1.95093583e+00
  1.95093583e+00  4.05613848e+00  4.05613848e+00  4.05613848e+00
  5.32635753e+00  5.32635753e+00  5.60750161e+00  1.17807559e+01
  1.17807559e+01  1.17807559e+01  1.32213015e+01  1.32213015e+01
  1.66272902e+01  1.93294719e+01  1.93294719e+01  1.93294719e+01
  1.93294719e+01  3.03341923e+01  3.03341923e+01  3.03341923e+01
  3.22295147e+01  3.22295147e+01  4.50522192e+01  7.97370905e+01
  7.97370905e+01  1.11274200e+02  1.22294534e+02  1.22294534e+02
  1.22294534e+02  1.96762006e+02  1.96762006e+02  2.55462802e+02
  4.50879163e+02  4.50879163e+02  4.50879163e+02  4.83676095e+02
  4.83676095e+02  5.66966063e+02  1.22161266e+03  1.22161266e+03
  1.26866839e+03  4.06596621e+03]
beta-B1g nocc = 0
   mo_energy = [4.61271111e-01 1.95093583e+00 4.05613848e+00 4.05613848e+00
 5.32635753e+00 1.17807559e+01 1.17807559e+01 1.32213015e+01
 1.93294719e+01 1.93294719e+01 1.93294719e+01 3.03341923e+01
 3.03341923e+01 3.22295147e+01 7.97370905e+01 1.22294534e+02
 1.22294534e+02 1.96762006e+02 4.50879163e+02 4.50879163e+02
 4.83676095e+02 1.22161266e+03]
beta-B2g nocc = 0
   mo_energy = [4.61271111e-01 1.95093583e+00 4.05613848e+00 4.05613848e+00
 5.32635753e+00 1.17807559e+01 1.17807559e+01 1.32213015e+01
 1.93294719e+01 1.93294719e+01 1.93294719e+01 3.03341923e+01
 3.03341923e+01 3.22295147e+01 7.97370905e+01 1.22294534e+02
 1.22294534e+02 1.96762006e+02 4.50879163e+02 4.50879163e+02
 4.83676095e+02 1.22161266e+03]
beta-B3g nocc = 0
   mo_energy = [4.61271111e-01 1.95093583e+00 4.05613848e+00 4.05613848e+00
 5.32635753e+00 1.17807559e+01 1.17807559e+01 1.32213015e+01
 1.93294719e+01 1.93294719e+01 1.93294719e+01 3.03341923e+01
 3.03341923e+01 3.22295147e+01 7.97370905e+01 1.22294534e+02
 1.22294534e+02 1.96762006e+02 4.50879163e+02 4.50879163e+02
 4.83676095e+02 1.22161266e+03]
beta-Au nocc = 0
   mo_energy = [  1.44059501   4.54600001   8.5528744    8.5528744   11.33111384
  25.22229819  25.22229819  27.17810983  77.71901272 229.99501954
 385.25742084 385.25742084 687.89493539]
beta-B1u nocc = 0
   mo_energy = [-3.82240794e-01  2.24656606e-02  7.15769419e-01  1.44059501e+00
  1.44059501e+00  2.49073101e+00  4.54600001e+00  4.54600001e+00
  6.82565083e+00  8.55287440e+00  8.55287440e+00  8.55287440e+00
  1.13311138e+01  1.13311138e+01  1.74775002e+01  2.52222982e+01
  2.52222982e+01  2.52222982e+01  2.71781098e+01  2.71781098e+01
  4.42087177e+01  7.77190127e+01  7.77190127e+01  1.09555425e+02
  2.29995020e+02  2.29995020e+02  2.63868840e+02  3.85257421e+02
  3.85257421e+02  3.85257421e+02  6.31394821e+02  6.87894935e+02
  6.87894935e+02  1.54577881e+03]
beta-B2u nocc = 0
   mo_energy = [-3.82240794e-01  2.24656606e-02  7.15769419e-01  1.44059501e+00
  1.44059501e+00  2.49073101e+00  4.54600001e+00  4.54600001e+00
  6.82565083e+00  8.55287440e+00  8.55287440e+00  8.55287440e+00
  1.13311138e+01  1.13311138e+01  1.74775002e+01  2.52222982e+01
  2.52222982e+01  2.52222982e+01  2.71781098e+01  2.71781098e+01
  4.42087177e+01  7.77190127e+01  7.77190127e+01  1.09555425e+02
  2.29995020e+02  2.29995020e+02  2.63868840e+02  3.85257421e+02
  3.85257421e+02  3.85257421e+02  6.31394821e+02  6.87894935e+02
  6.87894935e+02  1.54577881e+03]
beta-B3u nocc = 0
   mo_energy = [-3.82240794e-01  2.24656606e-02  7.15769419e-01  1.44059501e+00
  1.44059501e+00  2.49073101e+00  4.54600001e+00  4.54600001e+00
  6.82565083e+00  8.55287440e+00  8.55287440e+00  8.55287440e+00
  1.13311138e+01  1.13311138e+01  1.74775002e+01  2.52222982e+01
  2.52222982e+01  2.52222982e+01  2.71781098e+01  2.71781098e+01
  4.42087177e+01  7.77190127e+01  7.77190127e+01  1.09555425e+02
  2.29995020e+02  2.29995020e+02  2.63868840e+02  3.85257421e+02
  3.85257421e+02  3.85257421e+02  6.31394821e+02  6.87894935e+02
  6.87894935e+02  1.54577881e+03]
multiplicity <S^2> = 3.7555576  2S+1 = 4.0027778
E1 = -98.47083116837824  Ecoul = 24.093718098634962
Extra cycle  E= -74.3771130697433  delta_E= 2.84e-14  |g|= 9.6e-12  |ddm|= 8.62e-12
    CPU time for scf_cycle    221.62 sec, wall time     57.24 sec
    CPU time for SCF    221.66 sec, wall time     57.31 sec
converged SCF energy = -74.3771130697433  <S^2> = 3.7555576  2S+1 = 4.0027778
