#INFO: **** input file is /lustre06/project/6058907/jaafar1/PySCF-MRCC/Oxygen/Neutral/AE/aCV5Z/NetworkStorage/LongWall/input.py ****
import pyscf
from pyscf import cc, lib, tools, scf, symm, ao2mo
from pyscf.gto.basis import parse_gaussian
from pyscf.cc.mrcc import MRCCInterface

name = 'out'
mol = pyscf.M(
    atom = '''
        O
    ''',
    unit = 'angstrom',
    basis = {
            'O' : parse_gaussian.load('O-aCV5Z-EMSL.gbs', 'O')
    },
    charge = 0,
    spin = 2,
    symmetry = True,
    verbose = 9,
    symmetry_subgroup = 'D2h',
    output = name +'.txt',
    max_memory = 32000,
)
mf = mol.UHF().set(conv_tol=1e-10,max_cycle=9999,ddm_tol=1e-12,direct_scf_tol=1e-12,chkfile=name+'.chk',init_guess='atom',irrep_nelec={'Ag': 4, 'B3u':2 , 'B2u':1 ,'B1u':1 })
mf.kernel()

#pyscf.tools.fcidump.from_chkfile_uhf('FCIdump',name+'.chk',tol=1e-18, float_format='% 0.20E',molpro_orbsym=False,orbsym=None)
pyscf.tools.fcidump.from_scf_uhf(mf,'fort.55',tol=1e-18, float_format='% 0.20E',molpro_orbsym=False)

#MRCCInterface.run_mrcc(mf, fort_file='fort.55', mrcc_input_file='MINP', tol=1e-18, float_format='% 0.20E', molpro_orbsym=False)
#INFO: ******************** input file end ********************


System: uname_result(system='Linux', node='nc30622.narval.calcul.quebec', release='4.18.0-553.36.1.el8_10.x86_64', version='#1 SMP Wed Jan 22 16:34:48 UTC 2025', machine='x86_64')  Threads 4
Python 3.12.4 (main, Jun  7 2024, 23:47:47) [GCC 13.3.0]
numpy 2.1.1  scipy 1.14.1  h5py 3.12.0
Date: Thu Jan 30 08:18:09 2025
PySCF version 2.7.0
PySCF path  /home/jaafar1/projects/def-nike-ab/jaafar1/VENV/MRCCInterface/lib/python3.12/site-packages/pyscf

[CONFIG] ARGPARSE = False
[CONFIG] DEBUG = False
[CONFIG] MAX_MEMORY = 4000
[CONFIG] TMPDIR = /tmp
[CONFIG] UNIT = angstrom
[CONFIG] VERBOSE = 3
[CONFIG] conf_file = None
[INPUT] verbose = 9
[INPUT] max_memory = 32000 
[INPUT] num. atoms = 1
[INPUT] num. electrons = 8
[INPUT] charge = 0
[INPUT] spin (= nelec alpha-beta = 2S) = 2
[INPUT] symmetry True subgroup D2h
[INPUT] Mole.unit = angstrom
[INPUT] Symbol           X                Y                Z      unit          X                Y                Z       unit  Magmom
[INPUT]  1 O      0.000000000000   0.000000000000   0.000000000000 AA    0.000000000000   0.000000000000   0.000000000000 Bohr   0.0
[INPUT] ---------------- BASIS SET ---------------- 
[INPUT] l, kappa, [nprim/nctr], expnt,             c_1 c_2 ...
[INPUT] O
[INPUT] 0    0    [1    /1   ]  188.62               1
[INPUT] 0    0    [1    /1   ]  82.259               1
[INPUT] 0    0    [1    /1   ]  35.874               1
[INPUT] 0    0    [1    /1   ]  15.645               1
[INPUT] 0    0    [14   /2   ]  164200            2.6e-05 -6e-06
                                24590             0.000205 -4.6e-05
                                5592              0.001076 -0.000244
                                1582              0.004522 -0.001031
                                516.1             0.016108 -0.003688
                                187.2             0.049085 -0.011514
                                73.93             0.124857 -0.030435
                                31.22             0.251686 -0.068147
                                13.81             0.36242 -0.120368
                                6.256             0.279051 -0.14826
                                2.776             0.063552 0.009905
                                1.138             0.001063 0.384286
                                0.46              0.001144 0.536805
                                0.1829            -4e-05 0.202687
[INPUT] 0    0    [1    /1   ]  2.776                1
[INPUT] 0    0    [1    /1   ]  1.138                1
[INPUT] 0    0    [1    /1   ]  0.46                 1
[INPUT] 0    0    [1    /1   ]  0.1829               1
[INPUT] 0    0    [1    /1   ]  0.0655               1
[INPUT] 1    0    [1    /1   ]  225.63               1
[INPUT] 1    0    [1    /1   ]  89.429               1
[INPUT] 1    0    [1    /1   ]  35.446               1
[INPUT] 1    0    [1    /1   ]  14.049               1
[INPUT] 1    0    [1    /1   ]  2.094                1
[INPUT] 1    0    [1    /1   ]  0.8471               1
[INPUT] 1    0    [8    /1   ]  195.5             0.000918
                                46.16             0.007388
                                14.58             0.034958
                                5.296             0.115431
                                2.094             0.256803
                                0.8471            0.373938
                                0.3368            0.343447
                                0.1285            0.129706
[INPUT] 1    0    [1    /1   ]  0.3368               1
[INPUT] 1    0    [1    /1   ]  0.1285               1
[INPUT] 1    0    [1    /1   ]  0.0446               1
[INPUT] 2    0    [1    /1   ]  134.056              1
[INPUT] 2    0    [1    /1   ]  47.32                1
[INPUT] 2    0    [1    /1   ]  16.703               1
[INPUT] 2    0    [1    /1   ]  5.879                1
[INPUT] 2    0    [1    /1   ]  2.307                1
[INPUT] 2    0    [1    /1   ]  0.905                1
[INPUT] 2    0    [1    /1   ]  0.355                1
[INPUT] 2    0    [1    /1   ]  0.131                1
[INPUT] 3    0    [1    /1   ]  65.546               1
[INPUT] 3    0    [1    /1   ]  17.354               1
[INPUT] 3    0    [1    /1   ]  4.016                1
[INPUT] 3    0    [1    /1   ]  1.554                1
[INPUT] 3    0    [1    /1   ]  0.601                1
[INPUT] 3    0    [1    /1   ]  0.237                1
[INPUT] 4    0    [1    /1   ]  48.578               1
[INPUT] 4    0    [1    /1   ]  3.35                 1
[INPUT] 4    0    [1    /1   ]  1.189                1
[INPUT] 4    0    [1    /1   ]  0.517                1
[INPUT] 5    0    [1    /1   ]  2.319                1
[INPUT] 5    0    [1    /1   ]  1.024                1

nuclear repulsion = 0
point group symmetry = SO3, use subgroup D2h
symmetry origin: [0. 0. 0.]
symmetry axis x: [1. 0. 0.]
symmetry axis y: [0. 1. 0.]
symmetry axis z: [0. 0. 1.]
num. orbitals of irrep Ag = 39
num. orbitals of irrep B1g = 16
num. orbitals of irrep B2g = 16
num. orbitals of irrep B3g = 16
num. orbitals of irrep Au = 10
num. orbitals of irrep B1u = 28
num. orbitals of irrep B2u = 28
num. orbitals of irrep B3u = 28
number of shells = 40
number of NR pGTOs = 214
number of NR cGTOs = 181
basis = {'O': [[0, [188.62, 1.0]], [0, [82.259, 1.0]], [0, [35.874, 1.0]], [0, [15.645, 1.0]], [0, [164200.0, 2.6e-05, -6e-06], [24590.0, 0.000205, -4.6e-05], [5592.0, 0.001076, -0.000244], [1582.0, 0.004522, -0.001031], [516.1, 0.016108, -0.003688], [187.2, 0.049085, -0.011514], [73.93, 0.124857, -0.030435], [31.22, 0.251686, -0.068147], [13.81, 0.36242, -0.120368], [6.256, 0.279051, -0.14826], [2.776, 0.063552, 0.009905], [1.138, 0.001063, 0.384286], [0.46, 0.001144, 0.536805], [0.1829, -4e-05, 0.202687]], [0, [2.776, 1.0]], [0, [1.138, 1.0]], [0, [0.46, 1.0]], [0, [0.1829, 1.0]], [0, [0.0655, 1.0]], [1, [225.63, 1.0]], [1, [89.429, 1.0]], [1, [35.446, 1.0]], [1, [14.049, 1.0]], [1, [2.094, 1.0]], [1, [0.8471, 1.0]], [1, [195.5, 0.000918], [46.16, 0.007388], [14.58, 0.034958], [5.296, 0.115431], [2.094, 0.256803], [0.8471, 0.373938], [0.3368, 0.343447], [0.1285, 0.129706]], [1, [0.3368, 1.0]], [1, [0.1285, 1.0]], [1, [0.0446, 1.0]], [2, [134.056, 1.0]], [2, [47.32, 1.0]], [2, [16.703, 1.0]], [2, [5.879, 1.0]], [2, [2.307, 1.0]], [2, [0.905, 1.0]], [2, [0.355, 1.0]], [2, [0.131, 1.0]], [3, [65.546, 1.0]], [3, [17.354, 1.0]], [3, [4.016, 1.0]], [3, [1.554, 1.0]], [3, [0.601, 1.0]], [3, [0.237, 1.0]], [4, [48.578, 1.0]], [4, [3.35, 1.0]], [4, [1.189, 1.0]], [4, [0.517, 1.0]], [5, [2.319, 1.0]], [5, [1.024, 1.0]]]}
ecp = {}
bas 0, expnt(s) = [188.62]
bas 1, expnt(s) = [82.259]
bas 2, expnt(s) = [35.874]
bas 3, expnt(s) = [15.645]
bas 4, expnt(s) = [1.642e+05 2.459e+04 5.592e+03 1.582e+03 5.161e+02 1.872e+02 7.393e+01
 3.122e+01 1.381e+01 6.256e+00 2.776e+00 1.138e+00 4.600e-01 1.829e-01]
bas 5, expnt(s) = [2.776]
bas 6, expnt(s) = [1.138]
bas 7, expnt(s) = [0.46]
bas 8, expnt(s) = [0.1829]
bas 9, expnt(s) = [0.0655]
bas 10, expnt(s) = [225.63]
bas 11, expnt(s) = [89.429]
bas 12, expnt(s) = [35.446]
bas 13, expnt(s) = [14.049]
bas 14, expnt(s) = [2.094]
bas 15, expnt(s) = [0.8471]
bas 16, expnt(s) = [1.955e+02 4.616e+01 1.458e+01 5.296e+00 2.094e+00 8.471e-01 3.368e-01
 1.285e-01]
bas 17, expnt(s) = [0.3368]
bas 18, expnt(s) = [0.1285]
bas 19, expnt(s) = [0.0446]
bas 20, expnt(s) = [134.056]
bas 21, expnt(s) = [47.32]
bas 22, expnt(s) = [16.703]
bas 23, expnt(s) = [5.879]
bas 24, expnt(s) = [2.307]
bas 25, expnt(s) = [0.905]
bas 26, expnt(s) = [0.355]
bas 27, expnt(s) = [0.131]
bas 28, expnt(s) = [65.546]
bas 29, expnt(s) = [17.354]
bas 30, expnt(s) = [4.016]
bas 31, expnt(s) = [1.554]
bas 32, expnt(s) = [0.601]
bas 33, expnt(s) = [0.237]
bas 34, expnt(s) = [48.578]
bas 35, expnt(s) = [3.35]
bas 36, expnt(s) = [1.189]
bas 37, expnt(s) = [0.517]
bas 38, expnt(s) = [2.319]
bas 39, expnt(s) = [1.024]
CPU time:         0.99
arg.atm = [[ 8 20  1 23  0  0]]
arg.bas = [[  0   0   1   1   0  24  25   0]
 [  0   0   1   1   0  26  27   0]
 [  0   0   1   1   0  28  29   0]
 [  0   0   1   1   0  30  31   0]
 [  0   0  14   2   0  32  46   0]
 [  0   0   1   1   0  74  75   0]
 [  0   0   1   1   0  76  77   0]
 [  0   0   1   1   0  78  79   0]
 [  0   0   1   1   0  80  81   0]
 [  0   0   1   1   0  82  83   0]
 [  0   1   1   1   0  84  85   0]
 [  0   1   1   1   0  86  87   0]
 [  0   1   1   1   0  88  89   0]
 [  0   1   1   1   0  90  91   0]
 [  0   1   1   1   0  92  93   0]
 [  0   1   1   1   0  94  95   0]
 [  0   1   8   1   0  96 104   0]
 [  0   1   1   1   0 112 113   0]
 [  0   1   1   1   0 114 115   0]
 [  0   1   1   1   0 116 117   0]
 [  0   2   1   1   0 118 119   0]
 [  0   2   1   1   0 120 121   0]
 [  0   2   1   1   0 122 123   0]
 [  0   2   1   1   0 124 125   0]
 [  0   2   1   1   0 126 127   0]
 [  0   2   1   1   0 128 129   0]
 [  0   2   1   1   0 130 131   0]
 [  0   2   1   1   0 132 133   0]
 [  0   3   1   1   0 134 135   0]
 [  0   3   1   1   0 136 137   0]
 [  0   3   1   1   0 138 139   0]
 [  0   3   1   1   0 140 141   0]
 [  0   3   1   1   0 142 143   0]
 [  0   3   1   1   0 144 145   0]
 [  0   4   1   1   0 146 147   0]
 [  0   4   1   1   0 148 149   0]
 [  0   4   1   1   0 150 151   0]
 [  0   4   1   1   0 152 153   0]
 [  0   5   1   1   0 154 155   0]
 [  0   5   1   1   0 156 157   0]]
arg.env = [ 0.00000000e+00  0.00000000e+00  0.00000000e+00  0.00000000e+00
  0.00000000e+00  0.00000000e+00  0.00000000e+00  0.00000000e+00
  0.00000000e+00  0.00000000e+00  0.00000000e+00  0.00000000e+00
  0.00000000e+00  0.00000000e+00  0.00000000e+00  0.00000000e+00
  0.00000000e+00  0.00000000e+00  0.00000000e+00  0.00000000e+00
  0.00000000e+00  0.00000000e+00  0.00000000e+00  0.00000000e+00
  1.88620000e+02  1.28589595e+02  8.22590000e+01  6.90085009e+01
  3.58740000e+01  3.70339365e+01  1.56450000e+01  1.98745223e+01
  1.64200000e+05  2.45900000e+04  5.59200000e+03  1.58200000e+03
  5.16100000e+02  1.87200000e+02  7.39300000e+01  3.12200000e+01
  1.38100000e+01  6.25600000e+00  2.77600000e+00  1.13800000e+00
  4.60000000e-01  1.82900000e-01  5.35819082e-01  1.01703927e+00
  1.75793417e+00  2.86582971e+00  4.40663398e+00  6.27614751e+00
  7.95322720e+00  8.39844140e+00  6.55952480e+00  2.78882396e+00
  3.45309703e-01  2.95906786e-03  1.61439336e-03 -2.82641047e-05
 -1.23650525e-01 -2.28213629e-01 -3.98639240e-01 -6.53398860e-01
 -1.00891866e+00 -1.47221235e+00 -1.93866908e+00 -2.27397803e+00
 -2.17856816e+00 -1.48170381e+00  5.38187894e-02  1.06973476e+00
  7.57529891e-01  1.43219127e-01  2.77600000e+00  5.43349936e+00
  1.13800000e+00  2.78369546e+00  4.60000000e-01  1.41118320e+00
  1.82900000e-01  7.06602718e-01  6.55000000e-02  3.27111641e-01
  2.25630000e+02  2.55111741e+03  8.94290000e+01  8.02291813e+02
  3.54460000e+01  2.52315212e+02  1.40490000e+01  7.93489452e+01
  2.09400000e+00  7.34861067e+00  8.47100000e-01  2.37084272e+00
  1.95500000e+02  4.61600000e+01  1.45800000e+01  5.29600000e+00
  2.09400000e+00  8.47100000e-01  3.36800000e-01  1.28500000e-01
  1.95776499e+00  2.59324508e+00  2.90554702e+00  2.70546459e+00
  1.88714541e+00  8.86548253e-01  2.57074652e-01  2.91120911e-02
  3.36800000e-01  7.48513256e-01  1.28500000e-01  2.24446740e-01
  4.46000000e-02  5.97933610e-02  1.34056000e+02  1.37809874e+04
  4.73200000e+01  2.22770497e+03  1.67030000e+01  3.60097186e+02
  5.87900000e+00  5.79175846e+01  2.30700000e+00  1.12684109e+01
  9.05000000e-01  2.19111110e+00  3.55000000e-01  4.26019035e-01
  1.31000000e-01  7.44310513e-02  6.55460000e+01  2.41123366e+04
  1.73540000e+01  1.21243774e+03  4.01600000e+00  4.50345882e+01
  1.55400000e+00  5.31832832e+00  6.01000000e-01  6.27303808e-01
  2.37000000e-01  7.73026069e-02  4.85780000e+01  5.70989453e+04
  3.35000000e+00  3.65420007e+01  1.18900000e+00  2.11674822e+00
  5.17000000e-01  2.14297989e-01  2.31900000e+00  1.22033815e+01
  1.02400000e+00  8.56500488e-01]
ecpbas  = []


******** <class 'pyscf.scf.uhf_symm.SymAdaptedUHF'> ********
method = SymAdaptedUHF
initial guess = atom
damping factor = 0
level_shift factor = 0
DIIS = <class 'pyscf.scf.diis.CDIIS'>
diis_start_cycle = 1
diis_space = 8
diis_damp = 0
SCF conv_tol = 1e-10
SCF conv_tol_grad = None
SCF ddm_tol = 1e-12
SCF max_cycles = 9999
direct_scf = True
direct_scf_tol = 1e-12
chkfile to save SCF result = out.chk
max_memory 32000 MB (current use 90 MB)
number electrons alpha = 5  beta = 3
irrep_nelec {'Ag': 4, 'B3u': 2, 'B2u': 1, 'B1u': 1}
Freeze 8 electrons in irreps ['Ag', 'B3u', 'B2u', 'B1u']
    0 free electrons in irreps B1g B2g B3g Au
cond(S) = 1377069.4313096176
Set gradient conv threshold to 1e-05
Spherically averaged atomic HF for {'O'}


******** <class 'pyscf.scf.atom_hf.AtomSphAverageRHF'> ********
method = AtomSphAverageRHF
initial guess = minao
damping factor = 0
level_shift factor = 0
DIIS = <class 'pyscf.scf.diis.CDIIS'>
diis_start_cycle = 1
diis_space = 8
diis_damp = 0
SCF conv_tol = 1e-09
SCF conv_tol_grad = None
SCF ddm_tol = 1e-10
SCF max_cycles = 50
direct_scf = True
direct_scf_tol = 1e-13
chkfile to save SCF result = /tmp/tmpsb0l0xm1
max_memory 32000 MB (current use 93 MB)
atom = O
Set gradient conv threshold to 3.16228e-05
Initial guess from minao.
Nelec from initial guess = 7.999999198541795
E1 = -103.09226413007801  E_coul = 28.805808396011987
init E= -74.286455734066
l = 0  e_0 = -20.7014775
l = 0  e_1 = -1.26311633
l = 0  e_2 = 0.123351068
l = 0  e_3 = 0.731561858
l = 0  e_4 = 2.78884327
l = 0  e_5 = 9.1554845
l = 0  e_6 = 28.0489831
l = 0  e_7 = 80.7725921
l = 0  e_8 = 218.554405
l = 0  e_9 = 582.11409
l = 0  e_10 = 2067.62359
l = 1  e_0 = -0.391059303
l = 1  e_1 = 0.109210972
l = 1  e_2 = 0.495377964
l = 1  e_3 = 1.63469531
l = 1  e_4 = 4.73124951
l = 1  e_5 = 13.2414355
l = 1  e_6 = 37.7859383
l = 1  e_7 = 107.060089
l = 1  e_8 = 298.261366
l = 1  e_9 = 836.993431
l = 2  e_0 = 0.398966074
l = 2  e_1 = 1.24846813
l = 2  e_2 = 3.22145841
l = 2  e_3 = 8.19636488
l = 2  e_4 = 21.4870863
l = 2  e_5 = 60.8411147
l = 2  e_6 = 181.01114
l = 2  e_7 = 556.355232
l = 3  e_0 = 0.96760691
l = 3  e_1 = 2.85154565
l = 3  e_2 = 7.3310232
l = 3  e_3 = 19.0162914
l = 3  e_4 = 71.6609862
l = 3  e_5 = 291.335468
l = 4  e_0 = 2.59237621
l = 4  e_1 = 7.01965294
l = 4  e_2 = 18.995277
l = 4  e_3 = 245.609116
l = 5  e_0 = 6.14802933
l = 5  e_1 = 16.1550059
    CPU time for initialize scf      7.88 sec, wall time      2.25 sec
l = 0  e_0 = -20.7014775
l = 0  e_1 = -1.26311633
l = 0  e_2 = 0.123351068
l = 0  e_3 = 0.731561858
l = 0  e_4 = 2.78884327
l = 0  e_5 = 9.1554845
l = 0  e_6 = 28.0489831
l = 0  e_7 = 80.7725921
l = 0  e_8 = 218.554405
l = 0  e_9 = 582.11409
l = 0  e_10 = 2067.62359
l = 1  e_0 = -0.391059303
l = 1  e_1 = 0.109210972
l = 1  e_2 = 0.495377964
l = 1  e_3 = 1.63469531
l = 1  e_4 = 4.73124951
l = 1  e_5 = 13.2414355
l = 1  e_6 = 37.7859383
l = 1  e_7 = 107.060089
l = 1  e_8 = 298.261366
l = 1  e_9 = 836.993431
l = 2  e_0 = 0.398966074
l = 2  e_1 = 1.24846813
l = 2  e_2 = 3.22145841
l = 2  e_3 = 8.19636488
l = 2  e_4 = 21.4870863
l = 2  e_5 = 60.8411147
l = 2  e_6 = 181.01114
l = 2  e_7 = 556.355232
l = 3  e_0 = 0.96760691
l = 3  e_1 = 2.85154565
l = 3  e_2 = 7.3310232
l = 3  e_3 = 19.0162914
l = 3  e_4 = 71.6609862
l = 3  e_5 = 291.335468
l = 4  e_0 = 2.59237621
l = 4  e_1 = 7.01965294
l = 4  e_2 = 18.995277
l = 4  e_3 = 245.609116
l = 5  e_0 = 6.14802933
l = 5  e_1 = 16.1550059
l = 0  occ = 2 + 0
l = 1  occ = 0 + 1.333
l = 2  occ = 0 + 0
l = 3  occ = 0 + 0
E1 = -102.38752109477512  E_coul = 28.091752139283415
cycle= 1 E= -74.2957689554917  delta_E= -0.00931  |g|=    0  |ddm|= 0.391
    CPU time for cycle= 1      0.79 sec, wall time      0.20 sec
diis-norm(errvec)=0.135622
diis-c [-0.01839333  1.        ]
l = 0  e_0 = -20.8762544
l = 0  e_1 = -1.33252739
l = 0  e_2 = 0.118977913
l = 0  e_3 = 0.7132864
l = 0  e_4 = 2.74215142
l = 0  e_5 = 9.06520976
l = 0  e_6 = 27.9147418
l = 0  e_7 = 80.6084211
l = 0  e_8 = 218.372945
l = 0  e_9 = 581.919724
l = 0  e_10 = 2067.41566
l = 1  e_0 = -0.447195001
l = 1  e_1 = 0.107735263
l = 1  e_2 = 0.484832911
l = 1  e_3 = 1.60163312
l = 1  e_4 = 4.66261904
l = 1  e_5 = 13.1301177
l = 1  e_6 = 37.6369605
l = 1  e_7 = 106.887705
l = 1  e_8 = 298.074755
l = 1  e_9 = 836.794582
l = 2  e_0 = 0.395488829
l = 2  e_1 = 1.22952901
l = 2  e_2 = 3.1772928
l = 2  e_3 = 8.11518758
l = 2  e_4 = 21.3635917
l = 2  e_5 = 60.6827047
l = 2  e_6 = 180.832431
l = 2  e_7 = 556.16277
l = 3  e_0 = 0.963654536
l = 3  e_1 = 2.82989611
l = 3  e_2 = 7.27294667
l = 3  e_3 = 18.9086936
l = 3  e_4 = 71.499631
l = 3  e_5 = 291.151913
l = 4  e_0 = 2.58236336
l = 4  e_1 = 6.98081624
l = 4  e_2 = 18.9027941
l = 4  e_3 = 245.429691
l = 5  e_0 = 6.12544674
l = 5  e_1 = 16.0894789
l = 0  occ = 2 + 0
l = 1  occ = 0 + 1.333
l = 2  occ = 0 + 0
l = 3  occ = 0 + 0
E1 = -102.75694524447928  E_coul = 28.45992402045347
cycle= 2 E= -74.2970212240258  delta_E= -0.00125  |g|=    0  |ddm|= 0.091
    CPU time for cycle= 2      0.79 sec, wall time      0.20 sec
diis-norm(errvec)=0.0589491
diis-c [-3.10633653e-04  2.94941877e-01  7.05058123e-01]
l = 0  e_0 = -20.8114801
l = 0  e_1 = -1.31014466
l = 0  e_2 = 0.120397965
l = 0  e_3 = 0.718953462
l = 0  e_4 = 2.7579983
l = 0  e_5 = 9.09765939
l = 0  e_6 = 27.9641234
l = 0  e_7 = 80.6692882
l = 0  e_8 = 218.440391
l = 0  e_9 = 581.991516
l = 0  e_10 = 2067.49039
l = 1  e_0 = -0.425760165
l = 1  e_1 = 0.108336728
l = 1  e_2 = 0.488960137
l = 1  e_3 = 1.61406837
l = 1  e_4 = 4.68805337
l = 1  e_5 = 13.1711685
l = 1  e_6 = 37.6919007
l = 1  e_7 = 106.951524
l = 1  e_8 = 298.144032
l = 1  e_9 = 836.86768
l = 2  e_0 = 0.396775616
l = 2  e_1 = 1.23632018
l = 2  e_2 = 3.19348784
l = 2  e_3 = 8.14506827
l = 2  e_4 = 21.4093295
l = 2  e_5 = 60.7414036
l = 2  e_6 = 180.898901
l = 2  e_7 = 556.234281
l = 3  e_0 = 0.965109961
l = 3  e_1 = 2.83762712
l = 3  e_2 = 7.29410029
l = 3  e_3 = 18.948441
l = 3  e_4 = 71.5594071
l = 3  e_5 = 291.220355
l = 4  e_0 = 2.58593239
l = 4  e_1 = 6.99474202
l = 4  e_2 = 18.9368412
l = 4  e_3 = 245.496391
l = 5  e_0 = 6.13341983
l = 5  e_1 = 16.1133057
l = 0  occ = 2 + 0
l = 1  occ = 0 + 1.333
l = 2  occ = 0 + 0
l = 3  occ = 0 + 0
E1 = -102.62485142958512  E_coul = 28.32744614625222
cycle= 3 E= -74.2974052833329  delta_E= -0.000384  |g|=    0  |ddm|= 0.027
    CPU time for cycle= 3      0.79 sec, wall time      0.20 sec
diis-norm(errvec)=0.00671267
diis-c [-1.96828114e-06 -9.61917212e-02 -1.04636386e-01  1.20082811e+00]
l = 0  e_0 = -20.8148853
l = 0  e_1 = -1.31229786
l = 0  e_2 = 0.120250694
l = 0  e_3 = 0.718356839
l = 0  e_4 = 2.75680007
l = 0  e_5 = 9.09569996
l = 0  e_6 = 27.9613866
l = 0  e_7 = 80.6660735
l = 0  e_8 = 218.437128
l = 0  e_9 = 581.988497
l = 0  e_10 = 2067.48774
l = 1  e_0 = -0.42668342
l = 1  e_1 = 0.108319534
l = 1  e_2 = 0.488781229
l = 1  e_3 = 1.61347062
l = 1  e_4 = 4.68674949
l = 1  e_5 = 13.1689645
l = 1  e_6 = 37.6889089
l = 1  e_7 = 106.948187
l = 1  e_8 = 298.140785
l = 1  e_9 = 836.864756
l = 2  e_0 = 0.396695284
l = 2  e_1 = 1.23591739
l = 2  e_2 = 3.19261454
l = 2  e_3 = 8.14347551
l = 2  e_4 = 21.4068711
l = 2  e_5 = 60.7381814
l = 2  e_6 = 180.895474
l = 2  e_7 = 556.231151
l = 3  e_0 = 0.965018441
l = 3  e_1 = 2.8371593
l = 3  e_2 = 7.29294985
l = 3  e_3 = 18.9463258
l = 3  e_4 = 71.5560729
l = 3  e_5 = 291.216901
l = 4  e_0 = 2.58569661
l = 4  e_1 = 6.99393596
l = 4  e_2 = 18.9350493
l = 4  e_3 = 245.492778
l = 5  e_0 = 6.13290962
l = 5  e_1 = 16.1120174
l = 0  occ = 2 + 0
l = 1  occ = 0 + 1.333
l = 2  occ = 0 + 0
l = 3  occ = 0 + 0
E1 = -102.63270046796471  E_coul = 28.335290781046492
cycle= 4 E= -74.2974096869182  delta_E= -4.4e-06  |g|=    0  |ddm|= 0.00499
    CPU time for cycle= 4      0.79 sec, wall time      0.20 sec
diis-norm(errvec)=0.000264311
diis-c [-4.02898186e-09  1.39113453e-03  1.94503766e-03 -5.40978166e-02
  1.05076164e+00]
l = 0  e_0 = -20.8150245
l = 0  e_1 = -1.31239619
l = 0  e_2 = 0.120233522
l = 0  e_3 = 0.718315374
l = 0  e_4 = 2.75672566
l = 0  e_5 = 9.09559498
l = 0  e_6 = 27.9612594
l = 0  e_7 = 80.6659382
l = 0  e_8 = 218.437002
l = 0  e_9 = 581.988395
l = 0  e_10 = 2067.48767
l = 1  e_0 = -0.426737613
l = 1  e_1 = 0.108315639
l = 1  e_2 = 0.488760204
l = 1  e_3 = 1.61342206
l = 1  e_4 = 4.68666893
l = 1  e_5 = 13.1688536
l = 1  e_6 = 37.6887767
l = 1  e_7 = 106.948051
l = 1  e_8 = 298.140664
l = 1  e_9 = 836.864663
l = 2  e_0 = 0.396681813
l = 2  e_1 = 1.23588248
l = 2  e_2 = 3.19255007
l = 2  e_3 = 8.14338146
l = 2  e_4 = 21.4067502
l = 2  e_5 = 60.7380412
l = 2  e_6 = 180.895336
l = 2  e_7 = 556.231041
l = 3  e_0 = 0.965002107
l = 3  e_1 = 2.83711394
l = 3  e_2 = 7.29287038
l = 3  e_3 = 18.946214
l = 3  e_4 = 71.5559279
l = 3  e_5 = 291.216766
l = 4  e_0 = 2.5856648
l = 4  e_1 = 6.99386968
l = 4  e_2 = 18.9349466
l = 4  e_3 = 245.492631
l = 5  e_0 = 6.13285704
l = 5  e_1 = 16.1119305
l = 0  occ = 2 + 0
l = 1  occ = 0 + 1.333
l = 2  occ = 0 + 0
l = 3  occ = 0 + 0
E1 = -102.63301383913345  E_coul = 28.335604143973992
cycle= 5 E= -74.2974096951595  delta_E= -8.24e-09  |g|=    0  |ddm|= 0.000158
    CPU time for cycle= 5      0.80 sec, wall time      0.20 sec
diis-norm(errvec)=1.12034e-05
diis-c [-1.37696801e-11 -8.90200104e-05 -2.01749547e-04  7.75638512e-03
 -1.99122508e-01  1.19165689e+00]
l = 0  e_0 = -20.815026
l = 0  e_1 = -1.31239947
l = 0  e_2 = 0.120231931
l = 0  e_3 = 0.718313552
l = 0  e_4 = 2.75672288
l = 0  e_5 = 9.09559254
l = 0  e_6 = 27.9612577
l = 0  e_7 = 80.6659366
l = 0  e_8 = 218.437
l = 0  e_9 = 581.988393
l = 0  e_10 = 2067.48766
l = 1  e_0 = -0.426739708
l = 1  e_1 = 0.10831531
l = 1  e_2 = 0.488758714
l = 1  e_3 = 1.61341957
l = 1  e_4 = 4.68666614
l = 1  e_5 = 13.1688514
l = 1  e_6 = 37.688775
l = 1  e_7 = 106.94805
l = 1  e_8 = 298.140662
l = 1  e_9 = 836.864661
l = 2  e_0 = 0.39668022
l = 2  e_1 = 1.23588028
l = 2  e_2 = 3.19254693
l = 2  e_3 = 8.14337888
l = 2  e_4 = 21.4067484
l = 2  e_5 = 60.7380397
l = 2  e_6 = 180.895335
l = 2  e_7 = 556.231039
l = 3  e_0 = 0.965000198
l = 3  e_1 = 2.83711072
l = 3  e_2 = 7.29286726
l = 3  e_3 = 18.946212
l = 3  e_4 = 71.5559265
l = 3  e_5 = 291.216764
l = 4  e_0 = 2.58566168
l = 4  e_1 = 6.99386607
l = 4  e_2 = 18.9349443
l = 4  e_3 = 245.49263
l = 5  e_0 = 6.13285308
l = 5  e_1 = 16.1119275
l = 0  occ = 2 + 0
l = 1  occ = 0 + 1.333
l = 2  occ = 0 + 0
l = 3  occ = 0 + 0
E1 = -102.63300173095905  E_coul = 28.33559203573326
cycle= 6 E= -74.2974096952258  delta_E= -6.63e-11  |g|=    0  |ddm|= 9.51e-06
    CPU time for cycle= 6      0.79 sec, wall time      0.20 sec
diis-norm(errvec)=1.38374e-06
diis-c [-9.77714551e-14 -2.77459390e-06  1.65055844e-05 -2.05779758e-04
  5.17750980e-03 -6.77822351e-02  1.06279677e+00]
l = 0  e_0 = -20.8150271
l = 0  e_1 = -1.31240015
l = 0  e_2 = 0.120231821
l = 0  e_3 = 0.718313312
l = 0  e_4 = 2.75672234
l = 0  e_5 = 9.0955917
l = 0  e_6 = 27.9612567
l = 0  e_7 = 80.6659355
l = 0  e_8 = 218.436999
l = 0  e_9 = 581.988392
l = 0  e_10 = 2067.48766
l = 1  e_0 = -0.426740275
l = 1  e_1 = 0.10831528
l = 1  e_2 = 0.488758551
l = 1  e_3 = 1.61341916
l = 1  e_4 = 4.68666545
l = 1  e_5 = 13.1688505
l = 1  e_6 = 37.688774
l = 1  e_7 = 106.948049
l = 1  e_8 = 298.140661
l = 1  e_9 = 836.864659
l = 2  e_0 = 0.396680113
l = 2  e_1 = 1.23587999
l = 2  e_2 = 3.19254638
l = 2  e_3 = 8.14337808
l = 2  e_4 = 21.4067473
l = 2  e_5 = 60.7380386
l = 2  e_6 = 180.895334
l = 2  e_7 = 556.231038
l = 3  e_0 = 0.965000072
l = 3  e_1 = 2.83711035
l = 3  e_2 = 7.29286658
l = 3  e_3 = 18.946211
l = 3  e_4 = 71.5559254
l = 3  e_5 = 291.216763
l = 4  e_0 = 2.58566144
l = 4  e_1 = 6.99386552
l = 4  e_2 = 18.9349434
l = 4  e_3 = 245.492629
l = 5  e_0 = 6.13285267
l = 5  e_1 = 16.1119267
l = 0  occ = 2 + 0
l = 1  occ = 0 + 1.333
l = 2  occ = 0 + 0
l = 3  occ = 0 + 0
E1 = -102.63300373295856  E_coul = 28.33559403773244
cycle= 7 E= -74.2974096952261  delta_E= -3.27e-13  |g|=    0  |ddm|= 8.21e-07
    CPU time for cycle= 7      0.79 sec, wall time      0.20 sec
diis-norm(errvec)=3.72111e-08
diis-c [-2.81522812e-16  6.37714264e-07 -5.81040279e-07 -7.82114275e-06
  2.60537543e-04  2.00676609e-03 -1.04098982e-01  1.10183944e+00]
l = 0  e_0 = -20.8150271
l = 0  e_1 = -1.31240016
l = 0  e_2 = 0.12023182
l = 0  e_3 = 0.71831331
l = 0  e_4 = 2.75672234
l = 0  e_5 = 9.0955917
l = 0  e_6 = 27.9612566
l = 0  e_7 = 80.6659355
l = 0  e_8 = 218.436999
l = 0  e_9 = 581.988392
l = 0  e_10 = 2067.48766
l = 1  e_0 = -0.42674028
l = 1  e_1 = 0.108315279
l = 1  e_2 = 0.488758549
l = 1  e_3 = 1.61341916
l = 1  e_4 = 4.68666545
l = 1  e_5 = 13.1688505
l = 1  e_6 = 37.6887739
l = 1  e_7 = 106.948049
l = 1  e_8 = 298.140661
l = 1  e_9 = 836.864659
l = 2  e_0 = 0.396680111
l = 2  e_1 = 1.23587999
l = 2  e_2 = 3.19254638
l = 2  e_3 = 8.14337807
l = 2  e_4 = 21.4067473
l = 2  e_5 = 60.7380386
l = 2  e_6 = 180.895334
l = 2  e_7 = 556.231038
l = 3  e_0 = 0.96500007
l = 3  e_1 = 2.83711035
l = 3  e_2 = 7.29286657
l = 3  e_3 = 18.946211
l = 3  e_4 = 71.5559254
l = 3  e_5 = 291.216763
l = 4  e_0 = 2.58566144
l = 4  e_1 = 6.99386551
l = 4  e_2 = 18.9349434
l = 4  e_3 = 245.492629
l = 5  e_0 = 6.13285267
l = 5  e_1 = 16.1119267
l = 0  occ = 2 + 0
l = 1  occ = 0 + 1.333
l = 2  occ = 0 + 0
l = 3  occ = 0 + 0
E1 = -102.63300371564162  E_coul = 28.335594020415463
cycle= 8 E= -74.2974096952262  delta_E= -2.84e-14  |g|=    0  |ddm|= 2.57e-08
    CPU time for cycle= 8      0.79 sec, wall time      0.20 sec
diis-norm(errvec)=1.74849e-09
Linear dependence found in DIIS error vectors.
diis-c [-1.03620067e-15  2.79154050e-07 -1.38867162e-07 -5.31850955e-06
  1.62812556e-04  4.32575472e-04 -4.05382922e-02  4.91901235e-01
  5.48046848e-01]
l = 0  e_0 = -20.8150271
l = 0  e_1 = -1.31240016
l = 0  e_2 = 0.12023182
l = 0  e_3 = 0.71831331
l = 0  e_4 = 2.75672234
l = 0  e_5 = 9.0955917
l = 0  e_6 = 27.9612566
l = 0  e_7 = 80.6659355
l = 0  e_8 = 218.436999
l = 0  e_9 = 581.988392
l = 0  e_10 = 2067.48766
l = 1  e_0 = -0.42674028
l = 1  e_1 = 0.108315279
l = 1  e_2 = 0.488758549
l = 1  e_3 = 1.61341916
l = 1  e_4 = 4.68666545
l = 1  e_5 = 13.1688505
l = 1  e_6 = 37.6887739
l = 1  e_7 = 106.948049
l = 1  e_8 = 298.140661
l = 1  e_9 = 836.864659
l = 2  e_0 = 0.396680111
l = 2  e_1 = 1.23587999
l = 2  e_2 = 3.19254638
l = 2  e_3 = 8.14337807
l = 2  e_4 = 21.4067473
l = 2  e_5 = 60.7380386
l = 2  e_6 = 180.895334
l = 2  e_7 = 556.231038
l = 3  e_0 = 0.96500007
l = 3  e_1 = 2.83711035
l = 3  e_2 = 7.29286657
l = 3  e_3 = 18.946211
l = 3  e_4 = 71.5559254
l = 3  e_5 = 291.216763
l = 4  e_0 = 2.58566144
l = 4  e_1 = 6.99386551
l = 4  e_2 = 18.9349434
l = 4  e_3 = 245.492629
l = 5  e_0 = 6.13285267
l = 5  e_1 = 16.1119267
l = 0  occ = 2 + 0
l = 1  occ = 0 + 1.333
l = 2  occ = 0 + 0
l = 3  occ = 0 + 0
E1 = -102.63300371608976  E_coul = 28.335594020863674
cycle= 9 E= -74.2974096952261  delta_E= 5.68e-14  |g|=    0  |ddm|= 9.33e-10
    CPU time for cycle= 9      0.79 sec, wall time      0.20 sec
diis-norm(errvec)=1.06258e-09
Linear dependence found in DIIS error vectors.
diis-c [-9.31316510e-16  3.55555486e-01 -4.11126358e-07  1.81306311e-06
  2.10317385e-05  8.71346760e-04 -3.08299590e-02  3.19114175e-01
  3.55266518e-01]
l = 0  e_0 = -20.8150271
l = 0  e_1 = -1.31240016
l = 0  e_2 = 0.12023182
l = 0  e_3 = 0.71831331
l = 0  e_4 = 2.75672234
l = 0  e_5 = 9.0955917
l = 0  e_6 = 27.9612566
l = 0  e_7 = 80.6659355
l = 0  e_8 = 218.436999
l = 0  e_9 = 581.988392
l = 0  e_10 = 2067.48766
l = 1  e_0 = -0.42674028
l = 1  e_1 = 0.108315279
l = 1  e_2 = 0.488758549
l = 1  e_3 = 1.61341916
l = 1  e_4 = 4.68666545
l = 1  e_5 = 13.1688505
l = 1  e_6 = 37.6887739
l = 1  e_7 = 106.948049
l = 1  e_8 = 298.140661
l = 1  e_9 = 836.864659
l = 2  e_0 = 0.396680111
l = 2  e_1 = 1.23587999
l = 2  e_2 = 3.19254638
l = 2  e_3 = 8.14337807
l = 2  e_4 = 21.4067473
l = 2  e_5 = 60.7380386
l = 2  e_6 = 180.895334
l = 2  e_7 = 556.231038
l = 3  e_0 = 0.96500007
l = 3  e_1 = 2.83711035
l = 3  e_2 = 7.29286657
l = 3  e_3 = 18.946211
l = 3  e_4 = 71.5559254
l = 3  e_5 = 291.216763
l = 4  e_0 = 2.58566144
l = 4  e_1 = 6.99386551
l = 4  e_2 = 18.9349434
l = 4  e_3 = 245.492629
l = 5  e_0 = 6.13285267
l = 5  e_1 = 16.1119267
l = 0  occ = 2 + 0
l = 1  occ = 0 + 1.333
l = 2  occ = 0 + 0
l = 3  occ = 0 + 0
E1 = -102.63300371509101  E_coul = 28.33559401986487
cycle= 10 E= -74.2974096952261  delta_E= -4.26e-14  |g|=    0  |ddm|= 5.5e-10
    CPU time for cycle= 10      0.80 sec, wall time      0.21 sec
diis-norm(errvec)=9.37351e-10
Linear dependence found in DIIS error vectors.
diis-c [-4.41347304e-16  2.55697715e-01  2.55756581e-01 -4.28332435e-06
  1.63351694e-04 -6.63809876e-04 -9.98228606e-03  2.43473481e-01
  2.55559251e-01]
l = 0  e_0 = -20.8150271
l = 0  e_1 = -1.31240016
l = 0  e_2 = 0.12023182
l = 0  e_3 = 0.71831331
l = 0  e_4 = 2.75672234
l = 0  e_5 = 9.0955917
l = 0  e_6 = 27.9612566
l = 0  e_7 = 80.6659355
l = 0  e_8 = 218.436999
l = 0  e_9 = 581.988392
l = 0  e_10 = 2067.48766
l = 1  e_0 = -0.42674028
l = 1  e_1 = 0.108315279
l = 1  e_2 = 0.488758549
l = 1  e_3 = 1.61341916
l = 1  e_4 = 4.68666545
l = 1  e_5 = 13.1688505
l = 1  e_6 = 37.6887739
l = 1  e_7 = 106.948049
l = 1  e_8 = 298.140661
l = 1  e_9 = 836.864659
l = 2  e_0 = 0.396680111
l = 2  e_1 = 1.23587999
l = 2  e_2 = 3.19254638
l = 2  e_3 = 8.14337807
l = 2  e_4 = 21.4067473
l = 2  e_5 = 60.7380386
l = 2  e_6 = 180.895334
l = 2  e_7 = 556.231038
l = 3  e_0 = 0.96500007
l = 3  e_1 = 2.83711035
l = 3  e_2 = 7.29286657
l = 3  e_3 = 18.946211
l = 3  e_4 = 71.5559254
l = 3  e_5 = 291.216763
l = 4  e_0 = 2.58566144
l = 4  e_1 = 6.99386551
l = 4  e_2 = 18.9349434
l = 4  e_3 = 245.492629
l = 5  e_0 = 6.13285267
l = 5  e_1 = 16.1119267
l = 0  occ = 2 + 0
l = 1  occ = 0 + 1.333
l = 2  occ = 0 + 0
l = 3  occ = 0 + 0
E1 = -102.63300371559072  E_coul = 28.335594020364532
cycle= 11 E= -74.2974096952262  delta_E= -4.26e-14  |g|=    0  |ddm|= 1.74e-10
    CPU time for cycle= 11      0.78 sec, wall time      0.20 sec
diis-norm(errvec)=9.61282e-10
Linear dependence found in DIIS error vectors.
diis-c [-8.66256660e-16  2.03051756e-01  2.03072660e-01  2.03066812e-01
  3.72151646e-05 -4.97783023e-05 -7.61676955e-03  1.95489203e-01
  2.02948902e-01]
l = 0  e_0 = -20.8150271
l = 0  e_1 = -1.31240016
l = 0  e_2 = 0.12023182
l = 0  e_3 = 0.71831331
l = 0  e_4 = 2.75672234
l = 0  e_5 = 9.0955917
l = 0  e_6 = 27.9612566
l = 0  e_7 = 80.6659355
l = 0  e_8 = 218.436999
l = 0  e_9 = 581.988392
l = 0  e_10 = 2067.48766
l = 1  e_0 = -0.42674028
l = 1  e_1 = 0.108315279
l = 1  e_2 = 0.488758549
l = 1  e_3 = 1.61341916
l = 1  e_4 = 4.68666545
l = 1  e_5 = 13.1688505
l = 1  e_6 = 37.6887739
l = 1  e_7 = 106.948049
l = 1  e_8 = 298.140661
l = 1  e_9 = 836.864659
l = 2  e_0 = 0.396680111
l = 2  e_1 = 1.23587999
l = 2  e_2 = 3.19254638
l = 2  e_3 = 8.14337807
l = 2  e_4 = 21.4067473
l = 2  e_5 = 60.7380386
l = 2  e_6 = 180.895334
l = 2  e_7 = 556.231038
l = 3  e_0 = 0.96500007
l = 3  e_1 = 2.83711035
l = 3  e_2 = 7.29286657
l = 3  e_3 = 18.946211
l = 3  e_4 = 71.5559254
l = 3  e_5 = 291.216763
l = 4  e_0 = 2.58566144
l = 4  e_1 = 6.99386551
l = 4  e_2 = 18.9349434
l = 4  e_3 = 245.492629
l = 5  e_0 = 6.13285267
l = 5  e_1 = 16.1119267
l = 0  occ = 2 + 0
l = 1  occ = 0 + 1.333
l = 2  occ = 0 + 0
l = 3  occ = 0 + 0
E1 = -102.63300371366113  E_coul = 28.33559401843491
cycle= 12 E= -74.2974096952262  delta_E= -2.84e-14  |g|=    0  |ddm|= 8.94e-10
    CPU time for cycle= 12      0.78 sec, wall time      0.20 sec
diis-norm(errvec)=1.81922e-09
Linear dependence found in DIIS error vectors.
diis-c [-8.58799711e-16  1.67174849e-01  1.67124454e-01  1.67141799e-01
  1.67003734e-01  2.40269380e-05 -1.74991751e-03  1.66143795e-01
  1.67137259e-01]
l = 0  e_0 = -20.8150271
l = 0  e_1 = -1.31240016
l = 0  e_2 = 0.12023182
l = 0  e_3 = 0.71831331
l = 0  e_4 = 2.75672234
l = 0  e_5 = 9.0955917
l = 0  e_6 = 27.9612566
l = 0  e_7 = 80.6659355
l = 0  e_8 = 218.436999
l = 0  e_9 = 581.988392
l = 0  e_10 = 2067.48766
l = 1  e_0 = -0.42674028
l = 1  e_1 = 0.108315279
l = 1  e_2 = 0.488758549
l = 1  e_3 = 1.61341916
l = 1  e_4 = 4.68666545
l = 1  e_5 = 13.1688505
l = 1  e_6 = 37.6887739
l = 1  e_7 = 106.948049
l = 1  e_8 = 298.140661
l = 1  e_9 = 836.864659
l = 2  e_0 = 0.396680111
l = 2  e_1 = 1.23587999
l = 2  e_2 = 3.19254638
l = 2  e_3 = 8.14337807
l = 2  e_4 = 21.4067473
l = 2  e_5 = 60.7380386
l = 2  e_6 = 180.895334
l = 2  e_7 = 556.231038
l = 3  e_0 = 0.96500007
l = 3  e_1 = 2.83711035
l = 3  e_2 = 7.29286657
l = 3  e_3 = 18.946211
l = 3  e_4 = 71.5559254
l = 3  e_5 = 291.216763
l = 4  e_0 = 2.58566144
l = 4  e_1 = 6.99386551
l = 4  e_2 = 18.9349434
l = 4  e_3 = 245.492629
l = 5  e_0 = 6.13285267
l = 5  e_1 = 16.1119267
l = 0  occ = 2 + 0
l = 1  occ = 0 + 1.333
l = 2  occ = 0 + 0
l = 3  occ = 0 + 0
E1 = -102.63300371443275  E_coul = 28.335594019206724
cycle= 13 E= -74.297409695226  delta_E= 1.85e-13  |g|=    0  |ddm|= 7.69e-10
    CPU time for cycle= 13      0.79 sec, wall time      0.20 sec
diis-norm(errvec)=1.53799e-09
Linear dependence found in DIIS error vectors.
diis-c [-5.41333704e-17  1.43228299e-01  1.43185670e-01  1.43200328e-01
  1.43087573e-01  1.43145316e-01 -1.36846025e-03  1.42318996e-01
  1.43202278e-01]
l = 0  e_0 = -20.8150271
l = 0  e_1 = -1.31240016
l = 0  e_2 = 0.12023182
l = 0  e_3 = 0.71831331
l = 0  e_4 = 2.75672234
l = 0  e_5 = 9.0955917
l = 0  e_6 = 27.9612566
l = 0  e_7 = 80.6659355
l = 0  e_8 = 218.436999
l = 0  e_9 = 581.988392
l = 0  e_10 = 2067.48766
l = 1  e_0 = -0.42674028
l = 1  e_1 = 0.108315279
l = 1  e_2 = 0.488758549
l = 1  e_3 = 1.61341916
l = 1  e_4 = 4.68666545
l = 1  e_5 = 13.1688505
l = 1  e_6 = 37.6887739
l = 1  e_7 = 106.948049
l = 1  e_8 = 298.140661
l = 1  e_9 = 836.864659
l = 2  e_0 = 0.396680111
l = 2  e_1 = 1.23587999
l = 2  e_2 = 3.19254638
l = 2  e_3 = 8.14337807
l = 2  e_4 = 21.4067473
l = 2  e_5 = 60.7380386
l = 2  e_6 = 180.895334
l = 2  e_7 = 556.231038
l = 3  e_0 = 0.96500007
l = 3  e_1 = 2.83711035
l = 3  e_2 = 7.29286657
l = 3  e_3 = 18.946211
l = 3  e_4 = 71.5559254
l = 3  e_5 = 291.216763
l = 4  e_0 = 2.58566144
l = 4  e_1 = 6.99386551
l = 4  e_2 = 18.9349434
l = 4  e_3 = 245.492629
l = 5  e_0 = 6.13285267
l = 5  e_1 = 16.1119267
l = 0  occ = 2 + 0
l = 1  occ = 0 + 1.333
l = 2  occ = 0 + 0
l = 3  occ = 0 + 0
E1 = -102.6330037150335  E_coul = 28.33559401980732
cycle= 14 E= -74.2974096952262  delta_E= -1.56e-13  |g|=    0  |ddm|= 1.33e-10
    CPU time for cycle= 14      0.78 sec, wall time      0.20 sec
diis-norm(errvec)=1.23007e-09
Linear dependence found in DIIS error vectors.
diis-c [-2.89052492e-16  1.25000000e-01  1.25000000e-01  1.25000000e-01
  1.25000000e-01  1.25000000e-01  1.25000000e-01  1.25000000e-01
  1.25000000e-01]
l = 0  e_0 = -20.8150271
l = 0  e_1 = -1.31240016
l = 0  e_2 = 0.12023182
l = 0  e_3 = 0.71831331
l = 0  e_4 = 2.75672234
l = 0  e_5 = 9.0955917
l = 0  e_6 = 27.9612566
l = 0  e_7 = 80.6659355
l = 0  e_8 = 218.436999
l = 0  e_9 = 581.988392
l = 0  e_10 = 2067.48766
l = 1  e_0 = -0.42674028
l = 1  e_1 = 0.108315279
l = 1  e_2 = 0.488758549
l = 1  e_3 = 1.61341916
l = 1  e_4 = 4.68666545
l = 1  e_5 = 13.1688505
l = 1  e_6 = 37.6887739
l = 1  e_7 = 106.948049
l = 1  e_8 = 298.140661
l = 1  e_9 = 836.864659
l = 2  e_0 = 0.396680111
l = 2  e_1 = 1.23587999
l = 2  e_2 = 3.19254638
l = 2  e_3 = 8.14337807
l = 2  e_4 = 21.4067473
l = 2  e_5 = 60.7380386
l = 2  e_6 = 180.895334
l = 2  e_7 = 556.231038
l = 3  e_0 = 0.96500007
l = 3  e_1 = 2.83711035
l = 3  e_2 = 7.29286657
l = 3  e_3 = 18.946211
l = 3  e_4 = 71.5559254
l = 3  e_5 = 291.216763
l = 4  e_0 = 2.58566144
l = 4  e_1 = 6.99386551
l = 4  e_2 = 18.9349434
l = 4  e_3 = 245.492629
l = 5  e_0 = 6.13285267
l = 5  e_1 = 16.1119267
l = 0  occ = 2 + 0
l = 1  occ = 0 + 1.333
l = 2  occ = 0 + 0
l = 3  occ = 0 + 0
E1 = -102.63300371676877  E_coul = 28.335594021542665
cycle= 15 E= -74.2974096952261  delta_E= 7.11e-14  |g|=    0  |ddm|= 3.44e-10
    CPU time for cycle= 15      0.80 sec, wall time      0.21 sec
diis-norm(errvec)=9.39348e-10
Linear dependence found in DIIS error vectors.
diis-c [-2.89052492e-16  1.25000000e-01  1.25000000e-01  1.25000000e-01
  1.25000000e-01  1.25000000e-01  1.25000000e-01  1.25000000e-01
  1.25000000e-01]
l = 0  e_0 = -20.8150271
l = 0  e_1 = -1.31240016
l = 0  e_2 = 0.12023182
l = 0  e_3 = 0.71831331
l = 0  e_4 = 2.75672234
l = 0  e_5 = 9.0955917
l = 0  e_6 = 27.9612566
l = 0  e_7 = 80.6659355
l = 0  e_8 = 218.436999
l = 0  e_9 = 581.988392
l = 0  e_10 = 2067.48766
l = 1  e_0 = -0.42674028
l = 1  e_1 = 0.108315279
l = 1  e_2 = 0.488758549
l = 1  e_3 = 1.61341916
l = 1  e_4 = 4.68666545
l = 1  e_5 = 13.1688505
l = 1  e_6 = 37.6887739
l = 1  e_7 = 106.948049
l = 1  e_8 = 298.140661
l = 1  e_9 = 836.864659
l = 2  e_0 = 0.396680111
l = 2  e_1 = 1.23587999
l = 2  e_2 = 3.19254638
l = 2  e_3 = 8.14337807
l = 2  e_4 = 21.4067473
l = 2  e_5 = 60.7380386
l = 2  e_6 = 180.895334
l = 2  e_7 = 556.231038
l = 3  e_0 = 0.96500007
l = 3  e_1 = 2.83711035
l = 3  e_2 = 7.29286657
l = 3  e_3 = 18.946211
l = 3  e_4 = 71.5559254
l = 3  e_5 = 291.216763
l = 4  e_0 = 2.58566144
l = 4  e_1 = 6.99386551
l = 4  e_2 = 18.9349434
l = 4  e_3 = 245.492629
l = 5  e_0 = 6.13285267
l = 5  e_1 = 16.1119267
l = 0  occ = 2 + 0
l = 1  occ = 0 + 1.333
l = 2  occ = 0 + 0
l = 3  occ = 0 + 0
E1 = -102.63300371688939  E_coul = 28.335594021663223
cycle= 16 E= -74.2974096952262  delta_E= -5.68e-14  |g|=    0  |ddm|= 5.59e-10
    CPU time for cycle= 16      0.78 sec, wall time      0.19 sec
diis-norm(errvec)=3.37009e-10
Linear dependence found in DIIS error vectors.
diis-c [-2.89052492e-16  1.25000000e-01  1.25000000e-01  1.25000000e-01
  1.25000000e-01  1.25000000e-01  1.25000000e-01  1.25000000e-01
  1.25000000e-01]
l = 0  e_0 = -20.8150271
l = 0  e_1 = -1.31240016
l = 0  e_2 = 0.12023182
l = 0  e_3 = 0.71831331
l = 0  e_4 = 2.75672234
l = 0  e_5 = 9.0955917
l = 0  e_6 = 27.9612566
l = 0  e_7 = 80.6659355
l = 0  e_8 = 218.436999
l = 0  e_9 = 581.988392
l = 0  e_10 = 2067.48766
l = 1  e_0 = -0.42674028
l = 1  e_1 = 0.108315279
l = 1  e_2 = 0.488758549
l = 1  e_3 = 1.61341916
l = 1  e_4 = 4.68666545
l = 1  e_5 = 13.1688505
l = 1  e_6 = 37.6887739
l = 1  e_7 = 106.948049
l = 1  e_8 = 298.140661
l = 1  e_9 = 836.864659
l = 2  e_0 = 0.396680111
l = 2  e_1 = 1.23587999
l = 2  e_2 = 3.19254638
l = 2  e_3 = 8.14337807
l = 2  e_4 = 21.4067473
l = 2  e_5 = 60.7380386
l = 2  e_6 = 180.895334
l = 2  e_7 = 556.231038
l = 3  e_0 = 0.96500007
l = 3  e_1 = 2.83711035
l = 3  e_2 = 7.29286657
l = 3  e_3 = 18.946211
l = 3  e_4 = 71.5559254
l = 3  e_5 = 291.216763
l = 4  e_0 = 2.58566144
l = 4  e_1 = 6.99386551
l = 4  e_2 = 18.9349434
l = 4  e_3 = 245.492629
l = 5  e_0 = 6.13285267
l = 5  e_1 = 16.1119267
l = 0  occ = 2 + 0
l = 1  occ = 0 + 1.333
l = 2  occ = 0 + 0
l = 3  occ = 0 + 0
E1 = -102.63300371679787  E_coul = 28.335594021571737
cycle= 17 E= -74.2974096952261  delta_E= 2.84e-14  |g|=    0  |ddm|= 4.49e-11
    CPU time for cycle= 17      0.77 sec, wall time      0.19 sec
l = 0  e_0 = -20.8150271
l = 0  e_1 = -1.31240016
l = 0  e_2 = 0.12023182
l = 0  e_3 = 0.71831331
l = 0  e_4 = 2.75672234
l = 0  e_5 = 9.0955917
l = 0  e_6 = 27.9612566
l = 0  e_7 = 80.6659355
l = 0  e_8 = 218.436999
l = 0  e_9 = 581.988392
l = 0  e_10 = 2067.48766
l = 1  e_0 = -0.42674028
l = 1  e_1 = 0.108315279
l = 1  e_2 = 0.488758549
l = 1  e_3 = 1.61341916
l = 1  e_4 = 4.68666545
l = 1  e_5 = 13.1688505
l = 1  e_6 = 37.6887739
l = 1  e_7 = 106.948049
l = 1  e_8 = 298.140661
l = 1  e_9 = 836.864659
l = 2  e_0 = 0.396680111
l = 2  e_1 = 1.23587999
l = 2  e_2 = 3.19254638
l = 2  e_3 = 8.14337807
l = 2  e_4 = 21.4067473
l = 2  e_5 = 60.7380386
l = 2  e_6 = 180.895334
l = 2  e_7 = 556.231038
l = 3  e_0 = 0.96500007
l = 3  e_1 = 2.83711035
l = 3  e_2 = 7.29286657
l = 3  e_3 = 18.946211
l = 3  e_4 = 71.5559254
l = 3  e_5 = 291.216763
l = 4  e_0 = 2.58566144
l = 4  e_1 = 6.99386551
l = 4  e_2 = 18.9349434
l = 4  e_3 = 245.492629
l = 5  e_0 = 6.13285267
l = 5  e_1 = 16.1119267
l = 0  occ = 2 + 0
l = 1  occ = 0 + 1.333
l = 2  occ = 0 + 0
l = 3  occ = 0 + 0
E1 = -102.63300371599752  E_coul = 28.33559402077158
Extra cycle  E= -74.2974096952259  delta_E= 1.99e-13  |g|=    0  |ddm|= 4.49e-11
    CPU time for scf_cycle     22.02 sec, wall time      5.83 sec
    CPU time for SCF     22.02 sec, wall time      5.83 sec
Atomic HF for atom  O  converged. SCF energy = -74.2974096952259

Atom O, E = -74.2974096952
Nelec from initial guess = (np.float64(3.9999999999999947), np.float64(3.9999999999999947))
E1 = -102.63300371599752  Ecoul = 28.335594020771577
init E= -74.2974096952259
    CPU time for initialize scf     30.70 sec, wall time      8.30 sec
alpha HOMO (B3u) = -0.426740280287001  LUMO (B3u) = 0.108315279095321
alpha irrep_nelec = [2, 0, 0, 0, 0, 1, 1, 1]
beta  irrep_nelec = [2, 0, 0, 0, 0, 0, 0, 1]
alpha-Ag nocc = 2  HOMO = -1.31240015617419  LUMO = 0.12023182020369
   mo_energy = [-2.08150271e+01 -1.31240016e+00  1.20231820e-01  3.96680111e-01
  3.96680111e-01  7.18313310e-01  1.23587999e+00  1.23587999e+00
  2.58566144e+00  2.58566144e+00  2.58566144e+00  2.75672234e+00
  3.19254638e+00  3.19254638e+00  6.99386551e+00  6.99386551e+00
  6.99386551e+00  8.14337807e+00  8.14337807e+00  9.09559170e+00
  1.89349434e+01  1.89349434e+01  1.89349434e+01  2.14067473e+01
  2.14067473e+01  2.79612566e+01  6.07380386e+01  6.07380386e+01
  8.06659355e+01  1.80895334e+02  1.80895334e+02  2.18436999e+02
  2.45492629e+02  2.45492629e+02  2.45492629e+02  5.56231038e+02
  5.56231038e+02  5.81988392e+02  2.06748766e+03]
alpha-B1g nocc = 0
   mo_energy = [3.96680111e-01 1.23587999e+00 2.58566144e+00 2.58566144e+00
 3.19254638e+00 6.99386551e+00 6.99386551e+00 8.14337807e+00
 1.89349434e+01 1.89349434e+01 2.14067473e+01 6.07380386e+01
 1.80895334e+02 2.45492629e+02 2.45492629e+02 5.56231038e+02]
alpha-B2g nocc = 0
   mo_energy = [3.96680111e-01 1.23587999e+00 2.58566144e+00 2.58566144e+00
 3.19254638e+00 6.99386551e+00 6.99386551e+00 8.14337807e+00
 1.89349434e+01 1.89349434e+01 2.14067473e+01 6.07380386e+01
 1.80895334e+02 2.45492629e+02 2.45492629e+02 5.56231038e+02]
alpha-B3g nocc = 0
   mo_energy = [3.96680111e-01 1.23587999e+00 2.58566144e+00 2.58566144e+00
 3.19254638e+00 6.99386551e+00 6.99386551e+00 8.14337807e+00
 1.89349434e+01 1.89349434e+01 2.14067473e+01 6.07380386e+01
 1.80895334e+02 2.45492629e+02 2.45492629e+02 5.56231038e+02]
alpha-Au nocc = 0
   mo_energy = [  0.96500007   2.83711035   6.13285267   6.13285267   7.29286657
  16.11192669  16.11192669  18.94621101  71.55592539 291.21676272]
alpha-B1u nocc = 1  HOMO = -0.426740280287021  LUMO = 0.108315279095334
   mo_energy = [-4.26740280e-01  1.08315279e-01  4.88758549e-01  9.65000070e-01
  9.65000070e-01  1.61341916e+00  2.83711035e+00  2.83711035e+00
  4.68666545e+00  6.13285267e+00  6.13285267e+00  6.13285267e+00
  7.29286657e+00  7.29286657e+00  1.31688505e+01  1.61119267e+01
  1.61119267e+01  1.61119267e+01  1.89462110e+01  1.89462110e+01
  3.76887739e+01  7.15559254e+01  7.15559254e+01  1.06948049e+02
  2.91216763e+02  2.91216763e+02  2.98140661e+02  8.36864659e+02]
alpha-B2u nocc = 1  HOMO = -0.426740280287003  LUMO = 0.108315279095375
   mo_energy = [-4.26740280e-01  1.08315279e-01  4.88758549e-01  9.65000070e-01
  9.65000070e-01  1.61341916e+00  2.83711035e+00  2.83711035e+00
  4.68666545e+00  6.13285267e+00  6.13285267e+00  6.13285267e+00
  7.29286657e+00  7.29286657e+00  1.31688505e+01  1.61119267e+01
  1.61119267e+01  1.61119267e+01  1.89462110e+01  1.89462110e+01
  3.76887739e+01  7.15559254e+01  7.15559254e+01  1.06948049e+02
  2.91216763e+02  2.91216763e+02  2.98140661e+02  8.36864659e+02]
alpha-B3u nocc = 1  HOMO = -0.426740280287001  LUMO = 0.108315279095321
   mo_energy = [-4.26740280e-01  1.08315279e-01  4.88758549e-01  9.65000070e-01
  9.65000070e-01  1.61341916e+00  2.83711035e+00  2.83711035e+00
  4.68666545e+00  6.13285267e+00  6.13285267e+00  6.13285267e+00
  7.29286657e+00  7.29286657e+00  1.31688505e+01  1.61119267e+01
  1.61119267e+01  1.61119267e+01  1.89462110e+01  1.89462110e+01
  3.76887739e+01  7.15559254e+01  7.15559254e+01  1.06948049e+02
  2.91216763e+02  2.91216763e+02  2.98140661e+02  8.36864659e+02]
beta-Ag nocc = 2  HOMO = -1.31240015617419  LUMO = 0.12023182020369
   mo_energy = [-2.08150271e+01 -1.31240016e+00  1.20231820e-01  3.96680111e-01
  3.96680111e-01  7.18313310e-01  1.23587999e+00  1.23587999e+00
  2.58566144e+00  2.58566144e+00  2.58566144e+00  2.75672234e+00
  3.19254638e+00  3.19254638e+00  6.99386551e+00  6.99386551e+00
  6.99386551e+00  8.14337807e+00  8.14337807e+00  9.09559170e+00
  1.89349434e+01  1.89349434e+01  1.89349434e+01  2.14067473e+01
  2.14067473e+01  2.79612566e+01  6.07380386e+01  6.07380386e+01
  8.06659355e+01  1.80895334e+02  1.80895334e+02  2.18436999e+02
  2.45492629e+02  2.45492629e+02  2.45492629e+02  5.56231038e+02
  5.56231038e+02  5.81988392e+02  2.06748766e+03]
beta-B1g nocc = 0
   mo_energy = [3.96680111e-01 1.23587999e+00 2.58566144e+00 2.58566144e+00
 3.19254638e+00 6.99386551e+00 6.99386551e+00 8.14337807e+00
 1.89349434e+01 1.89349434e+01 2.14067473e+01 6.07380386e+01
 1.80895334e+02 2.45492629e+02 2.45492629e+02 5.56231038e+02]
beta-B2g nocc = 0
   mo_energy = [3.96680111e-01 1.23587999e+00 2.58566144e+00 2.58566144e+00
 3.19254638e+00 6.99386551e+00 6.99386551e+00 8.14337807e+00
 1.89349434e+01 1.89349434e+01 2.14067473e+01 6.07380386e+01
 1.80895334e+02 2.45492629e+02 2.45492629e+02 5.56231038e+02]
beta-B3g nocc = 0
   mo_energy = [3.96680111e-01 1.23587999e+00 2.58566144e+00 2.58566144e+00
 3.19254638e+00 6.99386551e+00 6.99386551e+00 8.14337807e+00
 1.89349434e+01 1.89349434e+01 2.14067473e+01 6.07380386e+01
 1.80895334e+02 2.45492629e+02 2.45492629e+02 5.56231038e+02]
beta-Au nocc = 0
   mo_energy = [  0.96500007   2.83711035   6.13285267   6.13285267   7.29286657
  16.11192669  16.11192669  18.94621101  71.55592539 291.21676272]
beta-B1u nocc = 0
   mo_energy = [-4.26740280e-01  1.08315279e-01  4.88758549e-01  9.65000070e-01
  9.65000070e-01  1.61341916e+00  2.83711035e+00  2.83711035e+00
  4.68666545e+00  6.13285267e+00  6.13285267e+00  6.13285267e+00
  7.29286657e+00  7.29286657e+00  1.31688505e+01  1.61119267e+01
  1.61119267e+01  1.61119267e+01  1.89462110e+01  1.89462110e+01
  3.76887739e+01  7.15559254e+01  7.15559254e+01  1.06948049e+02
  2.91216763e+02  2.91216763e+02  2.98140661e+02  8.36864659e+02]
beta-B2u nocc = 0
   mo_energy = [-4.26740280e-01  1.08315279e-01  4.88758549e-01  9.65000070e-01
  9.65000070e-01  1.61341916e+00  2.83711035e+00  2.83711035e+00
  4.68666545e+00  6.13285267e+00  6.13285267e+00  6.13285267e+00
  7.29286657e+00  7.29286657e+00  1.31688505e+01  1.61119267e+01
  1.61119267e+01  1.61119267e+01  1.89462110e+01  1.89462110e+01
  3.76887739e+01  7.15559254e+01  7.15559254e+01  1.06948049e+02
  2.91216763e+02  2.91216763e+02  2.98140661e+02  8.36864659e+02]
beta-B3u nocc = 1  HOMO = -0.426740280287001  LUMO = 0.108315279095321
   mo_energy = [-4.26740280e-01  1.08315279e-01  4.88758549e-01  9.65000070e-01
  9.65000070e-01  1.61341916e+00  2.83711035e+00  2.83711035e+00
  4.68666545e+00  6.13285267e+00  6.13285267e+00  6.13285267e+00
  7.29286657e+00  7.29286657e+00  1.31688505e+01  1.61119267e+01
  1.61119267e+01  1.61119267e+01  1.89462110e+01  1.89462110e+01
  3.76887739e+01  7.15559254e+01  7.15559254e+01  1.06948049e+02
  2.91216763e+02  2.91216763e+02  2.98140661e+02  8.36864659e+02]
multiplicity <S^2> = 2  2S+1 = 3
E1 = -102.63300371638991  Ecoul = 27.83768748286233
cycle= 1 E= -74.7953162335276  delta_E= -0.498  |g|= 0.208  |ddm|= 0.606
    CPU time for cycle= 1      1.68 sec, wall time      0.43 sec
diis-norm(errvec)=0.2943
diis-c [-0.0866126  1.       ]
alpha HOMO (B3u) = -0.660280857017058  LUMO (B1u) = 0.103093883330141
alpha irrep_nelec = [2, 0, 0, 0, 0, 1, 1, 1]
beta  irrep_nelec = [2, 0, 0, 0, 0, 0, 0, 1]
alpha-Ag nocc = 2  HOMO = -1.46615293230013  LUMO = 0.114087859047227
   mo_energy = [-2.08474235e+01 -1.46615293e+00  1.14087859e-01  3.84151902e-01
  3.96882384e-01  6.98439749e-01  1.18557053e+00  1.22438670e+00
  2.55905439e+00  2.58496427e+00  2.59373975e+00  2.72456042e+00
  3.11160077e+00  3.17663758e+00  6.93571337e+00  6.98903552e+00
  7.00699157e+00  8.05776315e+00  8.13952607e+00  9.06467247e+00
  1.88535507e+01  1.89283999e+01  1.89534777e+01  2.13365070e+01
  2.14173048e+01  2.79418499e+01  6.06933470e+01  6.07537417e+01
  8.06569312e+01  1.80872915e+02  1.80907634e+02  2.18433499e+02
  2.45463376e+02  2.45494699e+02  2.45505142e+02  5.56221953e+02
  5.56237455e+02  5.81987230e+02  2.06748727e+03]
alpha-B1g nocc = 0
   mo_energy = [3.93657976e-01 1.21435672e+00 2.57409788e+00 2.59153875e+00
 3.15989547e+00 6.96672566e+00 7.00249297e+00 8.11876015e+00
 1.88971442e+01 1.89472021e+01 2.13969898e+01 6.07386359e+01
 1.80898958e+02 2.45481647e+02 2.45502531e+02 5.56233582e+02]
alpha-B2g nocc = 0
   mo_energy = [3.93657976e-01 1.21435672e+00 2.57409788e+00 2.59153875e+00
 3.15989547e+00 6.96672566e+00 7.00249297e+00 8.11876015e+00
 1.88971442e+01 1.89472021e+01 2.13969898e+01 6.07386359e+01
 1.80898958e+02 2.45481647e+02 2.45502531e+02 5.56233582e+02]
alpha-B3g nocc = 0
   mo_energy = [3.84151902e-01 1.18557053e+00 2.55905439e+00 2.58496427e+00
 3.11160077e+00 6.93571337e+00 6.98903552e+00 8.05776315e+00
 1.88535507e+01 1.89283999e+01 2.13365070e+01 6.06933470e+01
 1.80872915e+02 2.45463376e+02 2.45494699e+02 5.56221953e+02]
alpha-Au nocc = 0
   mo_energy = [  0.96067632   2.81896276   6.11058637   6.13787546   7.26213248
  16.0738825   16.11886958  18.91669644  71.54118132 291.21333157]
alpha-B1u nocc = 1  HOMO = -0.738245989426366  LUMO = 0.103093883330141
   mo_energy = [-7.38245989e-01  1.03093883e-01  4.61977542e-01  9.50666409e-01
  9.66771457e-01  1.55995050e+00  2.79228561e+00  2.83517573e+00
  4.62295159e+00  6.09024635e+00  6.12648111e+00  6.14472874e+00
  7.21721931e+00  7.28934566e+00  1.31124876e+01  1.60402908e+01
  1.61000971e+01  1.61301523e+01  1.88645367e+01  1.89481387e+01
  3.76498387e+01  7.15041305e+01  7.15634224e+01  1.06926056e+02
  2.91196986e+02  2.91223132e+02  2.98129929e+02  8.36860226e+02]
alpha-B2u nocc = 1  HOMO = -0.738245989426337  LUMO = 0.103093883330175
   mo_energy = [-7.38245989e-01  1.03093883e-01  4.61977542e-01  9.50666409e-01
  9.66771457e-01  1.55995050e+00  2.79228561e+00  2.83517573e+00
  4.62295159e+00  6.09024635e+00  6.12648111e+00  6.14472874e+00
  7.21721931e+00  7.28934566e+00  1.31124876e+01  1.60402908e+01
  1.61000971e+01  1.61301523e+01  1.88645367e+01  1.89481387e+01
  3.76498387e+01  7.15041305e+01  7.15634224e+01  1.06926056e+02
  2.91196986e+02  2.91223132e+02  2.98129929e+02  8.36860226e+02]
alpha-B3u nocc = 1  HOMO = -0.660280857017058  LUMO = 0.108246604206188
   mo_energy = [-6.60280857e-01  1.08246604e-01  4.82186884e-01  9.60676323e-01
  9.68822349e-01  1.60507325e+00  2.81896276e+00  2.84062267e+00
  4.69104024e+00  6.11058637e+00  6.13787546e+00  6.14701597e+00
  7.26213248e+00  7.29846744e+00  1.31890250e+01  1.60738825e+01
  1.61188696e+01  1.61339165e+01  1.89166964e+01  1.89586454e+01
  3.77149490e+01  7.15411813e+01  7.15708378e+01  1.06969946e+02
  2.91213332e+02  2.91226398e+02  2.98154428e+02  8.36871288e+02]
beta-Ag nocc = 2  HOMO = -1.16156865812357  LUMO = 0.125872439794562
   mo_energy = [-2.07828520e+01 -1.16156866e+00  1.25872440e-01  4.00941300e-01
  4.04135373e-01  7.38042292e-01  1.26179478e+00  1.27098000e+00
  2.57753121e+00  2.59643206e+00  2.60276673e+00  2.78867652e+00
  3.23665337e+00  3.24737354e+00  6.98298675e+00  7.01859736e+00
  7.03048377e+00  8.18186014e+00  8.19538653e+00  9.12658075e+00
  1.89190060e+01  1.89694524e+01  1.89862984e+01  2.14182582e+01
  2.14553245e+01  2.79807426e+01  6.07325491e+01  6.07725290e+01
  8.06749882e+01  1.80886473e+02  1.80914304e+02  2.18440515e+02
  2.45477165e+02  2.45503337e+02  2.45512062e+02  5.56225504e+02
  5.56239235e+02  5.81989560e+02  2.06748806e+03]
beta-B1g nocc = 0
   mo_energy = [4.03212214e-01 1.26356636e+00 2.58853426e+00 2.60118194e+00
 3.23864475e+00 7.00374807e+00 7.02751175e+00 8.19187431e+00
 1.89484161e+01 1.89820855e+01 2.14460111e+01 6.07625305e+01
 1.80907349e+02 2.45492431e+02 2.45509880e+02 5.56235804e+02]
beta-B2g nocc = 0
   mo_energy = [4.03212214e-01 1.26356636e+00 2.58853426e+00 2.60118194e+00
 3.23864475e+00 7.00374807e+00 7.02751175e+00 8.19187431e+00
 1.89484161e+01 1.89820855e+01 2.14460111e+01 6.07625305e+01
 1.80907349e+02 2.45492431e+02 2.45509880e+02 5.56235804e+02]
beta-B3g nocc = 0
   mo_energy = [4.00941300e-01 1.27098000e+00 2.57753121e+00 2.59643206e+00
 3.24737354e+00 6.98298675e+00 7.01859736e+00 8.18186014e+00
 1.89190060e+01 1.89694524e+01 2.14182582e+01 6.07325491e+01
 1.80886473e+02 2.45477165e+02 2.45503337e+02 5.56225504e+02]
beta-Au nocc = 0
   mo_energy = [  0.96927337   2.85492801   6.13090935   6.15230447   7.32336988
  16.11039291  16.14486529  18.97576752  71.57067018 291.22019389]
beta-B1u nocc = 0
   mo_energy = [2.69568078e-02 1.33983717e-01 5.37225352e-01 9.62766669e-01
 9.73235558e-01 1.67117995e+00 2.84254447e+00 2.86240933e+00
 4.73211428e+00 6.11493661e+00 6.14337614e+00 6.15767089e+00
 7.30254951e+00 7.33590742e+00 1.31921879e+01 1.60846159e+01
 1.61304874e+01 1.61535019e+01 1.89467629e+01 1.89932086e+01
 3.76936116e+01 7.15451370e+01 7.15859935e+01 1.06944514e+02
 2.91206486e+02 2.91228414e+02 2.98136315e+02 8.36862065e+02]
beta-B2u nocc = 0
   mo_energy = [2.69568078e-02 1.33983717e-01 5.37225352e-01 9.62766669e-01
 9.73235558e-01 1.67117995e+00 2.84254447e+00 2.86240933e+00
 4.73211428e+00 6.11493661e+00 6.14337614e+00 6.15767089e+00
 7.30254951e+00 7.33590742e+00 1.31921879e+01 1.60846159e+01
 1.61304874e+01 1.61535019e+01 1.89467629e+01 1.89932086e+01
 3.76936116e+01 7.15451370e+01 7.15859935e+01 1.06944514e+02
 2.91206486e+02 2.91228414e+02 2.98136315e+02 8.36862065e+02]
beta-B3u nocc = 1  HOMO = -0.58257858084617  LUMO = 0.109836481836696
   mo_energy = [-5.82578581e-01  1.09836482e-01  4.92720992e-01  9.69273369e-01
  9.74560548e-01  1.62900102e+00  2.85492801e+00  2.86490953e+00
  4.72114417e+00  6.13090935e+00  6.15230447e+00  6.15946128e+00
  7.32336988e+00  7.34009476e+00  1.32149248e+01  1.61103929e+01
  1.61448653e+01  1.61563824e+01  1.89757675e+01  1.89990289e+01
  3.77308776e+01  7.15706702e+01  7.15911018e+01  1.06977249e+02
  2.91220194e+02  2.91231153e+02  2.98157100e+02  8.36872087e+02]
multiplicity <S^2> = 2.0025088  2S+1 = 3.0016721
E1 = -103.37652053832264  Ecoul = 28.560641569987737
cycle= 2 E= -74.8158789683349  delta_E= -0.0206  |g|= 0.0787  |ddm|= 0.113
    CPU time for cycle= 2      1.69 sec, wall time      0.43 sec
diis-norm(errvec)=0.111356
diis-c [-0.01205075  0.06406847  0.93593153]
alpha HOMO (B3u) = -0.603045806011023  LUMO (B1u) = 0.104508327747659
alpha irrep_nelec = [2, 0, 0, 0, 0, 1, 1, 1]
beta  irrep_nelec = [2, 0, 0, 0, 0, 0, 0, 1]
alpha-Ag nocc = 2  HOMO = -1.40697798884371  LUMO = 0.12021560514005
   mo_energy = [-2.06826244e+01 -1.40697799e+00  1.20215605e-01  3.90708829e-01
  4.02425771e-01  7.17391664e-01  1.20815300e+00  1.24723486e+00
  2.57277339e+00  2.59772952e+00  2.60619647e+00  2.76946102e+00
  3.15291422e+00  3.22152931e+00  6.97762805e+00  7.03066969e+00
  7.04855857e+00  8.13423703e+00  8.21914224e+00  9.15228664e+00
  1.89452945e+01  1.90209714e+01  1.90463426e+01  2.14555755e+01
  2.15383781e+01  2.80723404e+01  6.08462756e+01  6.09080319e+01
  8.08148530e+01  1.81042959e+02  1.81078422e+02  2.18604113e+02
  2.45635643e+02  2.45667681e+02  2.45678363e+02  5.56398233e+02
  5.56414027e+02  5.82162992e+02  2.06766421e+03]
alpha-B1g nocc = 0
   mo_energy = [3.99430791e-01 1.23704527e+00 2.58725483e+00 2.60407217e+00
 3.20374410e+00 7.00846205e+00 7.04407555e+00 8.19755858e+00
 1.89893613e+01 1.90399928e+01 2.15175521e+01 6.08925814e+01
 1.81069558e+02 2.45654330e+02 2.45675692e+02 5.56410080e+02]
alpha-B2g nocc = 0
   mo_energy = [3.99430791e-01 1.23704527e+00 2.58725483e+00 2.60407217e+00
 3.20374410e+00 7.00846205e+00 7.04407555e+00 8.19755858e+00
 1.89893613e+01 1.90399928e+01 2.15175521e+01 6.08925814e+01
 1.81069558e+02 2.45654330e+02 2.45675692e+02 5.56410080e+02]
alpha-B3g nocc = 0
   mo_energy = [3.90708829e-01 1.20815300e+00 2.57277339e+00 2.59772952e+00
 3.15291422e+00 6.97762805e+00 7.03066969e+00 8.13423703e+00
 1.89452945e+01 1.90209714e+01 2.14555755e+01 6.08462756e+01
 1.81042959e+02 2.45635643e+02 2.45667681e+02 5.56398233e+02]
alpha-Au nocc = 0
   mo_energy = [  0.96678722   2.84392114   6.13695517   6.16356836   7.32086218
  16.14158347  16.18641711  19.02227663  71.69808249 291.38761796]
alpha-B1u nocc = 1  HOMO = -0.694789242871797  LUMO = 0.104508327747659
   mo_energy = [-6.94789243e-01  1.04508328e-01  4.71397882e-01  9.57335813e-01
  9.72553300e-01  1.58987735e+00  2.81748381e+00  2.86001791e+00
  4.68765924e+00  6.11712773e+00  6.15245457e+00  6.17025402e+00
  7.27511094e+00  7.34860657e+00  1.32192219e+01  1.61081208e+01
  1.61677060e+01  1.61976649e+01  1.89690304e+01  1.90543858e+01
  3.77930460e+01  7.16601657e+01  7.17208476e+01  1.07090304e+02
  2.91370914e+02  2.91397635e+02  2.98303465e+02  8.37037202e+02]
alpha-B2u nocc = 1  HOMO = -0.694789242871826  LUMO = 0.104508327747695
   mo_energy = [-6.94789243e-01  1.04508328e-01  4.71397882e-01  9.57335813e-01
  9.72553300e-01  1.58987735e+00  2.81748381e+00  2.86001791e+00
  4.68765924e+00  6.11712773e+00  6.15245457e+00  6.17025402e+00
  7.27511094e+00  7.34860657e+00  1.32192219e+01  1.61081208e+01
  1.61677060e+01  1.61976649e+01  1.89690304e+01  1.90543858e+01
  3.77930460e+01  7.16601657e+01  7.17208476e+01  1.07090304e+02
  2.91370914e+02  2.91397635e+02  2.98303465e+02  8.37037202e+02]
alpha-B3u nocc = 1  HOMO = -0.603045806011023  LUMO = 0.109519462839352
   mo_energy = [-6.03045806e-01  1.09519463e-01  4.92361906e-01  9.66787219e-01
  9.74495711e-01  1.63768646e+00  2.84392114e+00  2.86543178e+00
  4.75884743e+00  6.13695517e+00  6.16356836e+00  6.17248551e+00
  7.32086218e+00  7.35791097e+00  1.32981620e+01  1.61415835e+01
  1.61864171e+01  1.62014177e+01  1.90222766e+01  1.90651175e+01
  3.78597310e+01  7.16980825e+01  7.17284384e+01  1.07135116e+02
  2.91387618e+02  2.91400973e+02  2.98328436e+02  8.37048455e+02]
beta-Ag nocc = 2  HOMO = -1.08326957946116  LUMO = 0.129729599750777
   mo_energy = [-2.06114499e+01 -1.08326958e+00  1.29729600e-01  4.03360052e-01
  4.06873740e-01  7.57220427e-01  1.27961953e+00  1.28984212e+00
  2.58885465e+00  2.60680766e+00  2.61281435e+00  2.84011128e+00
  3.28406455e+00  3.30055238e+00  7.02704328e+00  7.06006414e+00
  7.07108272e+00  8.27398564e+00  8.28104250e+00  9.22190012e+00
  1.90186881e+01  1.90661278e+01  1.90819804e+01  2.15477586e+01
  2.15811002e+01  2.81160619e+01  6.08904344e+01  6.09292416e+01
  8.08349211e+01  1.81058096e+02  1.81085838e+02  2.18611701e+02
  2.45651098e+02  2.45677408e+02  2.45686180e+02  5.56402040e+02
  5.56415850e+02  5.82165349e+02  2.06766492e+03]
beta-B1g nocc = 0
   mo_energy = [4.05825770e-01 1.28140089e+00 2.59931136e+00 2.61131209e+00
 3.28718005e+00 7.04629656e+00 7.06832785e+00 8.27911436e+00
 1.90463394e+01 1.90780154e+01 2.15727110e+01 6.09195310e+01
 1.81078903e+02 2.45666444e+02 2.45683987e+02 5.56412398e+02]
beta-B2g nocc = 0
   mo_energy = [4.05825770e-01 1.28140089e+00 2.59931136e+00 2.61131209e+00
 3.28718005e+00 7.04629656e+00 7.06832785e+00 8.27911436e+00
 1.90463394e+01 1.90780154e+01 2.15727110e+01 6.09195310e+01
 1.81078903e+02 2.45666444e+02 2.45683987e+02 5.56412398e+02]
beta-B3g nocc = 0
   mo_energy = [4.03360052e-01 1.28984212e+00 2.58885465e+00 2.60680766e+00
 3.30055238e+00 7.02704328e+00 7.06006414e+00 8.27398564e+00
 1.90186881e+01 1.90661278e+01 2.15477586e+01 6.08904344e+01
 1.81058096e+02 2.45651098e+02 2.45677408e+02 5.56402040e+02]
beta-Au nocc = 0
   mo_energy = [  0.97296216   2.87776065   6.15611202   6.17635646   7.38659814
  16.18106785  16.21372183  19.08851385  71.73137209 291.39525958]
beta-B1u nocc = 0
   mo_energy = [5.89753067e-02 1.59423477e-01 5.64539427e-01 9.66673136e-01
 9.76788098e-01 1.71725035e+00 2.86665489e+00 2.88446154e+00
 4.81047987e+00 6.14099721e+00 6.16790850e+00 6.18143405e+00
 7.36846385e+00 7.39751961e+00 1.33091488e+01 1.61566645e+01
 1.62000998e+01 1.62219062e+01 1.90617845e+01 1.91045958e+01
 3.78424356e+01 7.17063646e+01 7.17463848e+01 1.07110888e+02
 2.91381501e+02 2.91403511e+02 2.98310387e+02 8.37039049e+02]
beta-B2u nocc = 0
   mo_energy = [5.89753067e-02 1.59423477e-01 5.64539427e-01 9.66673136e-01
 9.76788098e-01 1.71725035e+00 2.86665489e+00 2.88446154e+00
 4.81047987e+00 6.14099721e+00 6.16790850e+00 6.18143405e+00
 7.36846385e+00 7.39751961e+00 1.33091488e+01 1.61566645e+01
 1.62000998e+01 1.62219062e+01 1.90617845e+01 1.91045958e+01
 3.78424356e+01 7.17063646e+01 7.17463848e+01 1.07110888e+02
 2.91381501e+02 2.91403511e+02 2.98310387e+02 8.37039049e+02]
beta-B3u nocc = 1  HOMO = -0.526410568498538  LUMO = 0.111057703284945
   mo_energy = [-5.26410568e-01  1.11057703e-01  5.02903810e-01  9.72962160e-01
  9.78062057e-01  1.66225715e+00  2.87776065e+00  2.88669571e+00
  4.79070008e+00  6.15611202e+00  6.17635646e+00  6.18312805e+00
  7.38659814e+00  7.40116710e+00  1.33266126e+01  1.61810679e+01
  1.62137218e+01  1.62246362e+01  1.90885139e+01  1.91099642e+01
  3.78775318e+01  7.17313721e+01  7.17513903e+01  1.07143140e+02
  2.91395260e+02  2.91406262e+02  2.98331190e+02  8.37049134e+02]
multiplicity <S^2> = 2.005213  2S+1 = 3.0034733
E1 = -103.2129914548689  Ecoul = 28.394738606465353
cycle= 3 E= -74.8182528484035  delta_E= -0.00237  |g|= 0.0242  |ddm|= 0.0565
    CPU time for cycle= 3      1.68 sec, wall time      0.42 sec
diis-norm(errvec)=0.0341819
diis-c [-6.66014600e-04 -8.25979433e-02 -1.71542015e-02  1.09975214e+00]
alpha HOMO (B3u) = -0.607921019557258  LUMO (B2u) = 0.104398578367939
alpha irrep_nelec = [2, 0, 0, 0, 0, 1, 1, 1]
beta  irrep_nelec = [2, 0, 0, 0, 0, 0, 0, 1]
alpha-Ag nocc = 2  HOMO = -1.41454754542029  LUMO = 0.120970989546278
   mo_energy = [-2.07057377e+01 -1.41454755e+00  1.20970990e-01  3.91644757e-01
  4.03565060e-01  7.17670449e-01  1.20824492e+00  1.24836919e+00
  2.57360730e+00  2.59915539e+00  2.60785652e+00  2.76664710e+00
  3.14865179e+00  3.21887355e+00  6.97684797e+00  7.03006108e+00
  7.04806454e+00  8.12643640e+00  8.21119338e+00  9.14398157e+00
  1.89384927e+01  1.90126455e+01  1.90375595e+01  2.14432830e+01
  2.15241562e+01  2.80574944e+01  6.08289344e+01  6.08883823e+01
  8.07945335e+01  1.81020535e+02  1.81054361e+02  2.18579319e+02
  2.45614393e+02  2.45644833e+02  2.45654986e+02  5.56370322e+02
  5.56385301e+02  5.82133911e+02  2.06763129e+03]
alpha-B1g nocc = 0
   mo_energy = [4.00486095e-01 1.23781675e+00 2.58841484e+00 2.60567182e+00
 3.20058354e+00 7.00775138e+00 7.04355004e+00 8.18959063e+00
 1.89816429e+01 1.90313215e+01 2.15037739e+01 6.08734871e+01
 1.81045899e+02 2.45632146e+02 2.45652447e+02 5.56381556e+02]
alpha-B2g nocc = 0
   mo_energy = [4.00486095e-01 1.23781675e+00 2.58841484e+00 2.60567182e+00
 3.20058354e+00 7.00775138e+00 7.04355004e+00 8.18959063e+00
 1.89816429e+01 1.90313215e+01 2.15037739e+01 6.08734871e+01
 1.81045899e+02 2.45632146e+02 2.45652447e+02 5.56381556e+02]
alpha-B3g nocc = 0
   mo_energy = [3.91644757e-01 1.20824492e+00 2.57360730e+00 2.59915539e+00
 3.14865179e+00 6.97684797e+00 7.03006108e+00 8.12643640e+00
 1.89384927e+01 1.90126455e+01 2.14432830e+01 6.08289344e+01
 1.81020535e+02 2.45614393e+02 2.45644833e+02 5.56370322e+02]
alpha-Au nocc = 0
   mo_energy = [  0.96774089   2.84456049   6.13784404   6.16479968   7.3170962
  16.13820286  16.18250178  19.01155674  71.67941079 291.36306845]
alpha-B1u nocc = 1  HOMO = -0.707231022715835  LUMO = 0.10439857836799
   mo_energy = [-7.07231023e-01  1.04398578e-01  4.70439122e-01  9.58024796e-01
  9.73694590e-01  1.58655759e+00  2.81768537e+00  2.86098773e+00
  4.68073043e+00  6.11781739e+00  6.15353239e+00  6.17158497e+00
  7.27136913e+00  7.34489627e+00  1.32076437e+01  1.61052168e+01
  1.61639993e+01  1.61936342e+01  1.89594857e+01  1.90430115e+01
  3.77764562e+01  7.16430398e+01  7.17012672e+01  1.07069076e+02
  2.91347201e+02  2.91372588e+02  2.98277672e+02  8.37006937e+02]
alpha-B2u nocc = 1  HOMO = -0.707231022715814  LUMO = 0.104398578367939
   mo_energy = [-7.07231023e-01  1.04398578e-01  4.70439122e-01  9.58024796e-01
  9.73694590e-01  1.58655759e+00  2.81768537e+00  2.86098773e+00
  4.68073043e+00  6.11781739e+00  6.15353239e+00  6.17158497e+00
  7.27136913e+00  7.34489627e+00  1.32076437e+01  1.61052168e+01
  1.61639993e+01  1.61936342e+01  1.89594857e+01  1.90430115e+01
  3.77764562e+01  7.16430398e+01  7.17012672e+01  1.07069076e+02
  2.91347201e+02  2.91372588e+02  2.98277672e+02  8.37006937e+02]
alpha-B3u nocc = 1  HOMO = -0.607921019557258  LUMO = 0.109651125095406
   mo_energy = [-6.07921020e-01  1.09651125e-01  4.92427729e-01  9.67740885e-01
  9.75705481e-01  1.63610543e+00  2.84456049e+00  2.86652531e+00
  4.75274333e+00  6.13784404e+00  6.16479968e+00  6.17385092e+00
  7.31709620e+00  7.35423250e+00  1.32856193e+01  1.61382029e+01
  1.61825018e+01  1.61973502e+01  1.90115567e+01  1.90535340e+01
  3.78411169e+01  7.16794108e+01  7.17085584e+01  1.07112019e+02
  2.91363068e+02  2.91375761e+02  2.98301437e+02  8.37017602e+02]
beta-Ag nocc = 2  HOMO = -1.07925730594013  LUMO = 0.130028072703877
   mo_energy = [-2.06316949e+01 -1.07925731e+00  1.30028073e-01  4.03141019e-01
  4.06644432e-01  7.58520582e-01  1.27826894e+00  1.28972088e+00
  2.58904607e+00  2.60718202e+00  2.61323969e+00  2.84070926e+00
  3.28265412e+00  3.30059623e+00  7.02741290e+00  7.05947035e+00
  7.07015940e+00  8.27062142e+00  8.27614494e+00  9.21711744e+00
  1.90145648e+01  1.90596056e+01  1.90746702e+01  2.15379531e+01
  2.15690885e+01  2.81034321e+01  6.08741346e+01  6.09106708e+01
  8.08157195e+01  1.81036119e+02  1.81062268e+02  2.18587492e+02
  2.45630104e+02  2.45654882e+02  2.45663146e+02  5.56374394e+02
  5.56387403e+02  5.82136613e+02  2.06763220e+03]
beta-B1g nocc = 0
   mo_energy = [4.05587896e-01 1.28037040e+00 2.59961387e+00 2.61172529e+00
 3.28621657e+00 7.04610814e+00 7.06748738e+00 8.27465884e+00
 1.90408104e+01 1.90709017e+01 2.15612476e+01 6.09015157e+01
 1.81055726e+02 2.45644555e+02 2.45661080e+02 5.56384150e+02]
beta-B2g nocc = 0
   mo_energy = [4.05587896e-01 1.28037040e+00 2.59961387e+00 2.61172529e+00
 3.28621657e+00 7.04610814e+00 7.06748738e+00 8.27465884e+00
 1.90408104e+01 1.90709017e+01 2.15612476e+01 6.09015157e+01
 1.81055726e+02 2.45644555e+02 2.45661080e+02 5.56384150e+02]
beta-B3g nocc = 0
   mo_energy = [4.03141019e-01 1.28972088e+00 2.58904607e+00 2.60718202e+00
 3.30059623e+00 7.02741290e+00 7.05947035e+00 8.27062142e+00
 1.90145648e+01 1.90596056e+01 2.15379531e+01 6.08741346e+01
 1.81036119e+02 2.45630104e+02 2.45654882e+02 5.56374394e+02]
beta-Au nocc = 0
   mo_energy = [  0.97296518   2.8777262    6.15669435   6.17684021   7.38482
  16.17895585  16.21046404  19.08043215  71.71375179 291.37100857]
beta-B1u nocc = 0
   mo_energy = [5.82109040e-02 1.58914681e-01 5.64390755e-01 9.66525802e-01
 9.76875223e-01 1.71581462e+00 2.86699971e+00 2.88414980e+00
 4.80621179e+00 6.14166541e+00 6.16843109e+00 6.18189605e+00
 7.36781233e+00 7.39502172e+00 1.33002437e+01 1.61554419e+01
 1.61973138e+01 1.62183692e+01 1.90553231e+01 1.90955433e+01
 3.78275048e+01 7.16902385e+01 7.17278779e+01 1.07090487e+02
 2.91358057e+02 2.91378779e+02 2.98285040e+02 8.37009053e+02]
beta-B2u nocc = 0
   mo_energy = [5.82109040e-02 1.58914681e-01 5.64390755e-01 9.66525802e-01
 9.76875223e-01 1.71581462e+00 2.86699971e+00 2.88414980e+00
 4.80621179e+00 6.14166541e+00 6.16843109e+00 6.18189605e+00
 7.36781233e+00 7.39502172e+00 1.33002437e+01 1.61554419e+01
 1.61973138e+01 1.62183692e+01 1.90553231e+01 1.90955433e+01
 3.78275048e+01 7.16902385e+01 7.17278779e+01 1.07090487e+02
 2.91358057e+02 2.91378779e+02 2.98285040e+02 8.37009053e+02]
beta-B3u nocc = 1  HOMO = -0.527621287514496  LUMO = 0.111289436767708
   mo_energy = [-5.27621288e-01  1.11289437e-01  5.03681426e-01  9.72965180e-01
  9.78173979e-01  1.66209677e+00  2.87772620e+00  2.88628375e+00
  4.78652580e+00  6.15669435e+00  6.17684021e+00  6.18358306e+00
  7.38482000e+00  7.39842272e+00  1.33162050e+01  1.61789558e+01
  1.62104640e+01  1.62210068e+01  1.90804321e+01  1.91005882e+01
  3.78604603e+01  7.17137518e+01  7.17325896e+01  1.07120893e+02
  2.91371009e+02  2.91381369e+02  2.98304658e+02  8.37018557e+02]
multiplicity <S^2> = 2.0074032  2S+1 = 3.0049314
E1 = -103.25011797672664  Ecoul = 28.431365297400447
cycle= 4 E= -74.8187526793262  delta_E= -0.0005  |g|= 0.00844  |ddm|= 0.0185
    CPU time for cycle= 4      1.69 sec, wall time      0.43 sec
diis-norm(errvec)=0.0119364
diis-c [-5.85346243e-05  3.13926698e-02 -9.68608680e-03 -5.71182501e-01
  1.54947592e+00]
alpha HOMO (B3u) = -0.610016229483537  LUMO (B1u) = 0.10423423405307
alpha irrep_nelec = [2, 0, 0, 0, 0, 1, 1, 1]
beta  irrep_nelec = [2, 0, 0, 0, 0, 0, 0, 1]
alpha-Ag nocc = 2  HOMO = -1.41736878923607  LUMO = 0.120994113018397
   mo_energy = [-2.07074452e+01 -1.41736879e+00  1.20994113e-01  3.91722286e-01
  4.03902992e-01  7.17392848e-01  1.20823886e+00  1.24874060e+00
  2.57322751e+00  2.59925991e+00  2.60815231e+00  2.76542857e+00
  3.14728795e+00  3.21775376e+00  6.97600894e+00  7.02938739e+00
  7.04748851e+00  8.12462622e+00  8.20899906e+00  9.14225789e+00
  1.89375159e+01  1.90109247e+01  1.90356261e+01  2.14422391e+01
  2.15221257e+01  2.80561774e+01  6.08288227e+01  6.08871839e+01
  8.07938874e+01  1.81020799e+02  1.81053890e+02  2.18579132e+02
  2.45614958e+02  2.45644682e+02  2.45654599e+02  5.56370619e+02
  5.56385251e+02  5.82133973e+02  2.06763150e+03]
alpha-B1g nocc = 0
   mo_energy = [4.00738147e-01 1.23804845e+00 2.58830220e+00 2.60591827e+00
 3.19937088e+00 7.00698636e+00 7.04294746e+00 8.18745666e+00
 1.89802131e+01 1.90294396e+01 2.15019637e+01 6.08725471e+01
 1.81045607e+02 2.45632292e+02 2.45652119e+02 5.56381591e+02]
alpha-B2g nocc = 0
   mo_energy = [4.00738147e-01 1.23804845e+00 2.58830220e+00 2.60591827e+00
 3.19937088e+00 7.00698636e+00 7.04294746e+00 8.18745666e+00
 1.89802131e+01 1.90294396e+01 2.15019637e+01 6.08725471e+01
 1.81045607e+02 2.45632292e+02 2.45652119e+02 5.56381591e+02]
alpha-B3g nocc = 0
   mo_energy = [3.91722286e-01 1.20823886e+00 2.57322751e+00 2.59925991e+00
 3.14728795e+00 6.97600894e+00 7.02938739e+00 8.12462622e+00
 1.89375159e+01 1.90109247e+01 2.14422391e+01 6.08288227e+01
 1.81020799e+02 2.45614958e+02 2.45644682e+02 5.56370619e+02]
alpha-Au nocc = 0
   mo_energy = [  0.96784192   2.8443831    6.13734427   6.16462251   7.31579258
  16.13708248  16.1812152   19.00983401  71.6787617  291.36312875]
alpha-B1u nocc = 1  HOMO = -0.710511363705007  LUMO = 0.10423423405307
   mo_energy = [-7.10511364e-01  1.04234234e-01  4.69725889e-01  9.57889779e-01
  9.73959273e-01  1.58519277e+00  2.81726344e+00  2.86100370e+00
  4.67909929e+00  6.11712336e+00  6.15321176e+00  6.17150022e+00
  7.27018637e+00  7.34356848e+00  1.32063581e+01  1.61042757e+01
  1.61627716e+01  1.61923195e+01  1.89583889e+01  1.90409480e+01
  3.77758428e+01  7.16431188e+01  7.17001925e+01  1.07068969e+02
  2.91347631e+02  2.91372429e+02  2.98277800e+02  8.37007160e+02]
alpha-B2u nocc = 1  HOMO = -0.710511363704964  LUMO = 0.104234234053103
   mo_energy = [-7.10511364e-01  1.04234234e-01  4.69725889e-01  9.57889779e-01
  9.73959273e-01  1.58519277e+00  2.81726344e+00  2.86100370e+00
  4.67909929e+00  6.11712336e+00  6.15321176e+00  6.17150022e+00
  7.27018637e+00  7.34356848e+00  1.32063581e+01  1.61042757e+01
  1.61627716e+01  1.61923195e+01  1.89583889e+01  1.90409480e+01
  3.77758428e+01  7.16431188e+01  7.17001925e+01  1.07068969e+02
  2.91347631e+02  2.91372429e+02  2.98277800e+02  8.37007160e+02]
alpha-B3u nocc = 1  HOMO = -0.610016229483537  LUMO = 0.109677934119113
   mo_energy = [-6.10016229e-01  1.09677934e-01  4.92261884e-01  9.67841918e-01
  9.76029017e-01  1.63539090e+00  2.84438310e+00  2.86661496e+00
  4.75126242e+00  6.13734427e+00  6.16462251e+00  6.17379805e+00
  7.31579258e+00  7.35290598e+00  1.32836983e+01  1.61370825e+01
  1.61812152e+01  1.61960273e+01  1.90098340e+01  1.90513632e+01
  3.78394943e+01  7.16787617e+01  7.17073437e+01  1.07111054e+02
  2.91363129e+02  2.91375529e+02  2.98301037e+02  8.37017579e+02]
beta-Ag nocc = 2  HOMO = -1.07640199721479  LUMO = 0.129980402952627
   mo_energy = [-2.06300017e+01 -1.07640200e+00  1.29980403e-01  4.02795647e-01
  4.06276821e-01  7.58723155e-01  1.27721391e+00  1.28887725e+00
  2.58825682e+00  2.60672226e+00  2.61288337e+00  2.84126914e+00
  3.28272093e+00  3.30024644e+00  7.02654760e+00  7.05872050e+00
  7.06944196e+00  8.27078517e+00  8.27661382e+00  9.21761837e+00
  1.90145088e+01  1.90590478e+01  1.90739515e+01  2.15383527e+01
  2.15690590e+01  2.81038319e+01  6.08747530e+01  6.09104970e+01
  8.08161619e+01  1.81036815e+02  1.81062336e+02  2.18587992e+02
  2.45630916e+02  2.45655062e+02  2.45663117e+02  5.56375026e+02
  5.56387718e+02  5.82137132e+02  2.06763268e+03]
beta-B1g nocc = 0
   mo_energy = [4.05244954e-01 1.27949987e+00 2.59901922e+00 2.61134357e+00
 3.28633100e+00 7.04531257e+00 7.06676226e+00 8.27509367e+00
 1.90404579e+01 1.90702230e+01 2.15613221e+01 6.09015331e+01
 1.81055948e+02 2.45644998e+02 2.45661103e+02 5.56384544e+02]
beta-B2g nocc = 0
   mo_energy = [4.05244954e-01 1.27949987e+00 2.59901922e+00 2.61134357e+00
 3.28633100e+00 7.04531257e+00 7.06676226e+00 8.27509367e+00
 1.90404579e+01 1.90702230e+01 2.15613221e+01 6.09015331e+01
 1.81055948e+02 2.45644998e+02 2.45661103e+02 5.56384544e+02]
beta-B3g nocc = 0
   mo_energy = [4.02795647e-01 1.28887725e+00 2.58825682e+00 2.60672226e+00
 3.30024644e+00 7.02654760e+00 7.05872050e+00 8.27078517e+00
 1.90145088e+01 1.90590478e+01 2.15383527e+01 6.08747530e+01
 1.81036815e+02 2.45630916e+02 2.45655062e+02 5.56375026e+02]
beta-Au nocc = 0
   mo_energy = [  0.97263399   2.87697058   6.15585903   6.17622342   7.38438862
  16.17823329  16.20959439  19.08038781  71.71397276 291.37139751]
beta-B1u nocc = 0
   mo_energy = [5.78484487e-02 1.58874750e-01 5.64594903e-01 9.66049395e-01
 9.76622714e-01 1.71574983e+00 2.86610195e+00 2.88343709e+00
 4.80612894e+00 6.14067509e+00 6.16772164e+00 6.18133592e+00
 7.36735094e+00 7.39457742e+00 1.33004800e+01 1.61548487e+01
 1.61965020e+01 1.62174672e+01 1.90556067e+01 1.90953035e+01
 3.78280382e+01 7.16910132e+01 7.17277721e+01 1.07091158e+02
 2.91358772e+02 2.91378975e+02 2.98285699e+02 8.37009638e+02]
beta-B2u nocc = 0
   mo_energy = [5.78484487e-02 1.58874750e-01 5.64594903e-01 9.66049395e-01
 9.76622714e-01 1.71574983e+00 2.86610195e+00 2.88343709e+00
 4.80612894e+00 6.14067509e+00 6.16772164e+00 6.18133592e+00
 7.36735094e+00 7.39457742e+00 1.33004800e+01 1.61548487e+01
 1.61965020e+01 1.62174672e+01 1.90556067e+01 1.90953035e+01
 3.78280382e+01 7.16910132e+01 7.17277721e+01 1.07091158e+02
 2.91358772e+02 2.91378975e+02 2.98285699e+02 8.37009638e+02]
beta-B3u nocc = 1  HOMO = -0.524113678619176  LUMO = 0.111513026718023
   mo_energy = [-5.24113679e-01  1.11513027e-01  5.04600397e-01  9.72633987e-01
  9.77946141e-01  1.66334762e+00  2.87697058e+00  2.88557870e+00
  4.78737874e+00  6.15585903e+00  6.17622342e+00  6.18304200e+00
  7.38438862e+00  7.39796853e+00  1.33164647e+01  1.61782333e+01
  1.62095944e+01  1.62200944e+01  1.90803878e+01  1.91002834e+01
  3.78603763e+01  7.17139728e+01  7.17323758e+01  1.07120873e+02
  2.91371398e+02  2.91381501e+02  2.98304848e+02  8.37018913e+02]
multiplicity <S^2> = 2.0087488  2S+1 = 3.0058269
E1 = -103.25305195095376  Ecoul = 28.43421526176514
cycle= 5 E= -74.8188366891886  delta_E= -8.4e-05  |g|= 0.00237  |ddm|= 0.0128
    CPU time for cycle= 5      1.69 sec, wall time      0.42 sec
diis-norm(errvec)=0.0033556
diis-c [-2.08566260e-06 -3.57316925e-03  4.00121476e-03  1.42214384e-01
 -6.67783739e-01  1.52514131e+00]
alpha HOMO (B3u) = -0.611164446291634  LUMO (B1u) = 0.104222983307375
alpha irrep_nelec = [2, 0, 0, 0, 0, 1, 1, 1]
beta  irrep_nelec = [2, 0, 0, 0, 0, 0, 0, 1]
alpha-Ag nocc = 2  HOMO = -1.41817644641792  LUMO = 0.121009251082401
   mo_energy = [-2.07074381e+01 -1.41817645e+00  1.21009251e-01  3.91736364e-01
  4.04015434e-01  7.17335805e-01  1.20834823e+00  1.24888377e+00
  2.57315369e+00  2.59929278e+00  2.60821985e+00  2.76519492e+00
  3.14722020e+00  3.21743847e+00  6.97603200e+00  7.02933477e+00
  7.04740223e+00  8.12459924e+00  8.20854467e+00  9.14209187e+00
  1.89378153e+01  1.90108621e+01  1.90354316e+01  2.14425238e+01
  2.15219158e+01  2.80562642e+01  6.08292945e+01  6.08872412e+01
  8.07941298e+01  1.81021242e+02  1.81054076e+02  2.18579399e+02
  2.45615507e+02  2.45644991e+02  2.45654827e+02  5.56370933e+02
  5.56385445e+02  5.82134198e+02  2.06763166e+03]
alpha-B1g nocc = 0
   mo_energy = [4.00825397e-01 1.23818228e+00 2.58829122e+00 2.60597716e+00
 3.19912447e+00 7.00696988e+00 7.04287000e+00 8.18711875e+00
 1.89803074e+01 1.90292786e+01 2.15018859e+01 6.08727120e+01
 1.81045858e+02 2.45632702e+02 2.45652368e+02 5.56381816e+02]
alpha-B2g nocc = 0
   mo_energy = [4.00825397e-01 1.23818228e+00 2.58829122e+00 2.60597716e+00
 3.19912447e+00 7.00696988e+00 7.04287000e+00 8.18711875e+00
 1.89803074e+01 1.90292786e+01 2.15018859e+01 6.08727120e+01
 1.81045858e+02 2.45632702e+02 2.45652368e+02 5.56381816e+02]
alpha-B3g nocc = 0
   mo_energy = [3.91736364e-01 1.20834823e+00 2.57315369e+00 2.59929278e+00
 3.14722020e+00 6.97603200e+00 7.02933477e+00 8.12459924e+00
 1.89378153e+01 1.90108621e+01 2.14425238e+01 6.08292945e+01
 1.81021242e+02 2.45615507e+02 2.45644991e+02 5.56370933e+02]
alpha-Au nocc = 0
   mo_energy = [  0.96787562   2.84441578   6.13729728   6.16460293   7.31569896
  16.13715635  16.18113405  19.00983569  71.67905434 291.36345329]
alpha-B1u nocc = 1  HOMO = -0.711051295503886  LUMO = 0.104222983307375
   mo_energy = [-7.11051296e-01  1.04222983e-01  4.69653687e-01  9.57852507e-01
  9.74037031e-01  1.58503804e+00  2.81727562e+00  2.86104676e+00
  4.67901612e+00  6.11705017e+00  6.15318177e+00  6.17148620e+00
  7.27024811e+00  7.34337157e+00  1.32064710e+01  1.61044522e+01
  1.61627576e+01  1.61921964e+01  1.89586774e+01  1.90407663e+01
  3.77761588e+01  7.16436708e+01  7.17003257e+01  1.07069347e+02
  2.91348080e+02  2.91372678e+02  2.98278128e+02  8.37007397e+02]
alpha-B2u nocc = 1  HOMO = -0.71105129550389  LUMO = 0.10422298330738
   mo_energy = [-7.11051296e-01  1.04222983e-01  4.69653687e-01  9.57852507e-01
  9.74037031e-01  1.58503804e+00  2.81727562e+00  2.86104676e+00
  4.67901612e+00  6.11705017e+00  6.15318177e+00  6.17148620e+00
  7.27024811e+00  7.34337157e+00  1.32064710e+01  1.61044522e+01
  1.61627576e+01  1.61921964e+01  1.89586774e+01  1.90407663e+01
  3.77761588e+01  7.16436708e+01  7.17003257e+01  1.07069347e+02
  2.91348080e+02  2.91372678e+02  2.98278128e+02  8.37007397e+02]
alpha-B3u nocc = 1  HOMO = -0.611164446291634  LUMO = 0.109685399625857
[...]
 3.19903024e+00 7.00693775e+00 7.04282368e+00 8.18698618e+00
 1.89802265e+01 1.90291758e+01 2.15017522e+01 6.08725946e+01
 1.81045770e+02 2.45632601e+02 2.45652270e+02 5.56381764e+02]
alpha-B3g nocc = 0
   mo_energy = [3.91733710e-01 1.20833226e+00 2.57314734e+00 2.59929198e+00
 3.14719001e+00 6.97600718e+00 7.02929457e+00 8.12454909e+00
 1.89377497e+01 1.90107681e+01 2.14424391e+01 6.08291912e+01
 1.81021153e+02 2.45615403e+02 2.45644892e+02 5.56370878e+02]
alpha-Au nocc = 0
   mo_energy = [  0.96788274   2.84440313   6.13728293   6.16458244   7.31563294
  16.13710505  16.18106823  19.00972994  71.67893575 291.3633701 ]
alpha-B1u nocc = 1  HOMO = -0.711069558786937  LUMO = 0.104223176419288
   mo_energy = [-7.11069559e-01  1.04223176e-01  4.69654662e-01  9.57849720e-01
  9.74048738e-01  1.58502865e+00  2.81726033e+00  2.86103206e+00
  4.67897410e+00  6.11703742e+00  6.15316444e+00  6.17146340e+00
  7.27020888e+00  7.34328575e+00  1.32063950e+01  1.61044084e+01
  1.61626985e+01  1.61921260e+01  1.89586021e+01  1.90406401e+01
  3.77760651e+01  7.16435603e+01  7.17002017e+01  1.07069259e+02
  2.91347994e+02  2.91372596e+02  2.98278062e+02  8.37007361e+02]
alpha-B2u nocc = 1  HOMO = -0.711069558786956  LUMO = 0.104223176419299
   mo_energy = [-7.11069559e-01  1.04223176e-01  4.69654662e-01  9.57849720e-01
  9.74048738e-01  1.58502865e+00  2.81726033e+00  2.86103206e+00
  4.67897410e+00  6.11703742e+00  6.15316444e+00  6.17146340e+00
  7.27020888e+00  7.34328575e+00  1.32063950e+01  1.61044084e+01
  1.61626985e+01  1.61921260e+01  1.89586021e+01  1.90406401e+01
  3.77760651e+01  7.16435603e+01  7.17002017e+01  1.07069259e+02
  2.91347994e+02  2.91372596e+02  2.98278062e+02  8.37007361e+02]
alpha-B3u nocc = 1  HOMO = -0.611629210636801  LUMO = 0.109673676921754
   mo_energy = [-6.11629211e-01  1.09673677e-01  4.92088639e-01  9.67882737e-01
  9.76134813e-01  1.63493966e+00  2.84440313e+00  2.86664511e+00
  4.75068769e+00  6.13728293e+00  6.16458244e+00  6.17376214e+00
  7.31563294e+00  7.35257963e+00  1.32832136e+01  1.61371050e+01
  1.61810682e+01  1.61958180e+01  1.90097299e+01  1.90509849e+01
  3.78392607e+01  7.16789357e+01  7.17072972e+01  1.07111031e+02
  2.91363370e+02  2.91375672e+02  2.98301121e+02  8.37017698e+02]
beta-Ag nocc = 2  HOMO = -1.07557457984896  LUMO = 0.129897525677273
   mo_energy = [-2.06292674e+01 -1.07557458e+00  1.29897526e-01  4.02697849e-01
  4.06073838e-01  7.58701258e-01  1.27697769e+00  1.28868335e+00
  2.58805856e+00  2.60654207e+00  2.61270905e+00  2.84151984e+00
  3.28314216e+00  3.30028611e+00  7.02647224e+00  7.05865124e+00
  7.06937548e+00  8.27115521e+00  8.27731107e+00  9.21806298e+00
  1.90149250e+01  1.90593688e+01  1.90742379e+01  2.15388915e+01
  2.15696229e+01  2.81043213e+01  6.08752911e+01  6.09108789e+01
  8.08165843e+01  1.81037250e+02  1.81062610e+02  2.18588329e+02
  2.45631410e+02  2.45655391e+02  2.45663391e+02  5.56375337e+02
  5.56387937e+02  5.82137390e+02  2.06763286e+03]
beta-B1g nocc = 0
   mo_energy = [4.05065911e-01 1.27925450e+00 2.59883165e+00 2.61116778e+00
 3.28663555e+00 7.04524052e+00 7.06669503e+00 8.27569733e+00
 1.90408202e+01 1.90705182e+01 2.15618812e+01 6.09019566e+01
 1.81056263e+02 2.45645396e+02 2.45661391e+02 5.56384786e+02]
beta-B2g nocc = 0
   mo_energy = [4.05065911e-01 1.27925450e+00 2.59883165e+00 2.61116778e+00
 3.28663555e+00 7.04524052e+00 7.06669503e+00 8.27569733e+00
 1.90408202e+01 1.90705182e+01 2.15618812e+01 6.09019566e+01
 1.81056263e+02 2.45645396e+02 2.45661391e+02 5.56384786e+02]
beta-B3g nocc = 0
   mo_energy = [4.02697849e-01 1.28868335e+00 2.58805856e+00 2.60654207e+00
 3.30028611e+00 7.02647224e+00 7.05865124e+00 8.27115521e+00
 1.90149250e+01 1.90593688e+01 2.15388915e+01 6.08752911e+01
 1.81037250e+02 2.45631410e+02 2.45655391e+02 5.56375337e+02]
beta-Au nocc = 0
   mo_energy = [  0.97249595   2.8767877    6.15567482   6.17604879   7.38455474
  16.17836241  16.20966371  19.08088475  71.7144599  291.37172458]
beta-B1u nocc = 0
   mo_energy = [5.77881337e-02 1.58914356e-01 5.64675917e-01 9.65918925e-01
 9.76480217e-01 1.71584071e+00 2.86591537e+00 2.88326454e+00
 4.80634252e+00 6.14048070e+00 6.16754359e+00 6.18116294e+00
 7.36747207e+00 7.39478049e+00 1.33008906e+01 1.61550155e+01
 1.61965975e+01 1.62175199e+01 1.90561285e+01 1.90957852e+01
 3.78285341e+01 7.16916134e+01 7.17281892e+01 1.07091606e+02
 2.91359185e+02 2.91379249e+02 2.98286052e+02 8.37009893e+02]
beta-B2u nocc = 0
   mo_energy = [5.77881337e-02 1.58914356e-01 5.64675917e-01 9.65918925e-01
 9.76480217e-01 1.71584071e+00 2.86591537e+00 2.88326454e+00
 4.80634252e+00 6.14048070e+00 6.16754359e+00 6.18116294e+00
 7.36747207e+00 7.39478049e+00 1.33008906e+01 1.61550155e+01
 1.61965975e+01 1.62175199e+01 1.90561285e+01 1.90957852e+01
 3.78285341e+01 7.16916134e+01 7.17281892e+01 1.07091606e+02
 2.91359185e+02 2.91379249e+02 2.98286052e+02 8.37009893e+02]
beta-B3u nocc = 1  HOMO = -0.521693882216154  LUMO = 0.111608688756166
   mo_energy = [-5.21693882e-01  1.11608689e-01  5.05039937e-01  9.72495947e-01
  9.77801802e-01  1.66409576e+00  2.87678770e+00  2.88541046e+00
  4.78814685e+00  6.15567482e+00  6.17604879e+00  6.18286949e+00
  7.38455474e+00  7.39818540e+00  1.33170827e+01  1.61783624e+01
  1.62096637e+01  1.62201414e+01  1.90808847e+01  1.91007599e+01
  3.78607985e+01  7.17144599e+01  7.17327693e+01  1.07121159e+02
  2.91371725e+02  2.91381758e+02  2.98305073e+02  8.37019101e+02]
multiplicity <S^2> = 2.0093765  2S+1 = 3.0062445
E1 = -103.25152019511549  Ecoul = 28.432675604419515
cycle= 57 E= -74.818844590696  delta_E= -1.42e-14  |g|= 1.7e-12  |ddm|= 2.21e-12
    CPU time for cycle= 57      1.68 sec, wall time      0.42 sec
diis-norm(errvec)=2.75459e-12
Linear dependence found in DIIS error vectors.
diis-c [-2.89052492e-16  1.25000000e-01  1.25000000e-01  1.25000000e-01
  1.25000000e-01  1.25000000e-01  1.25000000e-01  1.25000000e-01
  1.25000000e-01]
alpha HOMO (B3u) = -0.611629210636852  LUMO (B2u) = 0.104223176419259
alpha irrep_nelec = [2, 0, 0, 0, 0, 1, 1, 1]
beta  irrep_nelec = [2, 0, 0, 0, 0, 0, 0, 1]
alpha-Ag nocc = 2  HOMO = -1.41831621252447  LUMO = 0.121017468390507
   mo_energy = [-2.07075486e+01 -1.41831621e+00  1.21017468e-01  3.91733710e-01
  4.04042722e-01  7.17329907e-01  1.20833226e+00  1.24889068e+00
  2.57314734e+00  2.59929198e+00  2.60821901e+00  2.76513971e+00
  3.14719001e+00  3.21731555e+00  6.97600718e+00  7.02929457e+00
  7.04735365e+00  8.12454909e+00  8.20838055e+00  9.14200140e+00
  1.89377497e+01  1.90107681e+01  1.90353258e+01  2.14424391e+01
  2.15217635e+01  2.80561649e+01  6.08291912e+01  6.08871181e+01
  8.07940399e+01  1.81021153e+02  1.81053988e+02  2.18579330e+02
  2.45615403e+02  2.45644892e+02  2.45654730e+02  5.56370878e+02
  5.56385394e+02  5.82134154e+02  2.06763164e+03]
alpha-B1g nocc = 0
   mo_energy = [4.00847145e-01 1.23818795e+00 2.58828906e+00 2.60597643e+00
 3.19903024e+00 7.00693775e+00 7.04282368e+00 8.18698618e+00
 1.89802265e+01 1.90291758e+01 2.15017522e+01 6.08725946e+01
 1.81045770e+02 2.45632601e+02 2.45652270e+02 5.56381764e+02]
alpha-B2g nocc = 0
   mo_energy = [4.00847145e-01 1.23818795e+00 2.58828906e+00 2.60597643e+00
 3.19903024e+00 7.00693775e+00 7.04282368e+00 8.18698618e+00
 1.89802265e+01 1.90291758e+01 2.15017522e+01 6.08725946e+01
 1.81045770e+02 2.45632601e+02 2.45652270e+02 5.56381764e+02]
alpha-B3g nocc = 0
   mo_energy = [3.91733710e-01 1.20833226e+00 2.57314734e+00 2.59929198e+00
 3.14719001e+00 6.97600718e+00 7.02929457e+00 8.12454909e+00
 1.89377497e+01 1.90107681e+01 2.14424391e+01 6.08291912e+01
 1.81021153e+02 2.45615403e+02 2.45644892e+02 5.56370878e+02]
alpha-Au nocc = 0
   mo_energy = [  0.96788274   2.84440313   6.13728293   6.16458244   7.31563294
  16.13710505  16.18106823  19.00972994  71.67893575 291.3633701 ]
alpha-B1u nocc = 1  HOMO = -0.711069558786921  LUMO = 0.104223176419324
   mo_energy = [-7.11069559e-01  1.04223176e-01  4.69654662e-01  9.57849720e-01
  9.74048738e-01  1.58502865e+00  2.81726033e+00  2.86103206e+00
  4.67897410e+00  6.11703742e+00  6.15316444e+00  6.17146340e+00
  7.27020888e+00  7.34328575e+00  1.32063950e+01  1.61044084e+01
  1.61626985e+01  1.61921260e+01  1.89586021e+01  1.90406401e+01
  3.77760651e+01  7.16435603e+01  7.17002017e+01  1.07069259e+02
  2.91347994e+02  2.91372596e+02  2.98278062e+02  8.37007361e+02]
alpha-B2u nocc = 1  HOMO = -0.711069558786953  LUMO = 0.104223176419259
   mo_energy = [-7.11069559e-01  1.04223176e-01  4.69654662e-01  9.57849720e-01
  9.74048738e-01  1.58502865e+00  2.81726033e+00  2.86103206e+00
  4.67897410e+00  6.11703742e+00  6.15316444e+00  6.17146340e+00
  7.27020888e+00  7.34328575e+00  1.32063950e+01  1.61044084e+01
  1.61626985e+01  1.61921260e+01  1.89586021e+01  1.90406401e+01
  3.77760651e+01  7.16435603e+01  7.17002017e+01  1.07069259e+02
  2.91347994e+02  2.91372596e+02  2.98278062e+02  8.37007361e+02]
alpha-B3u nocc = 1  HOMO = -0.611629210636852  LUMO = 0.10967367692175
   mo_energy = [-6.11629211e-01  1.09673677e-01  4.92088639e-01  9.67882737e-01
  9.76134813e-01  1.63493966e+00  2.84440313e+00  2.86664511e+00
  4.75068769e+00  6.13728293e+00  6.16458244e+00  6.17376214e+00
  7.31563294e+00  7.35257963e+00  1.32832136e+01  1.61371050e+01
  1.61810682e+01  1.61958180e+01  1.90097299e+01  1.90509849e+01
  3.78392607e+01  7.16789357e+01  7.17072972e+01  1.07111031e+02
  2.91363370e+02  2.91375672e+02  2.98301121e+02  8.37017698e+02]
beta-Ag nocc = 2  HOMO = -1.07557457984898  LUMO = 0.129897525677302
   mo_energy = [-2.06292674e+01 -1.07557458e+00  1.29897526e-01  4.02697849e-01
  4.06073838e-01  7.58701258e-01  1.27697769e+00  1.28868335e+00
  2.58805856e+00  2.60654207e+00  2.61270905e+00  2.84151984e+00
  3.28314216e+00  3.30028611e+00  7.02647224e+00  7.05865124e+00
  7.06937548e+00  8.27115521e+00  8.27731107e+00  9.21806298e+00
  1.90149250e+01  1.90593688e+01  1.90742379e+01  2.15388915e+01
  2.15696229e+01  2.81043213e+01  6.08752911e+01  6.09108789e+01
  8.08165843e+01  1.81037250e+02  1.81062610e+02  2.18588329e+02
  2.45631410e+02  2.45655391e+02  2.45663391e+02  5.56375337e+02
  5.56387937e+02  5.82137390e+02  2.06763286e+03]
beta-B1g nocc = 0
   mo_energy = [4.05065911e-01 1.27925450e+00 2.59883165e+00 2.61116778e+00
 3.28663555e+00 7.04524052e+00 7.06669503e+00 8.27569733e+00
 1.90408202e+01 1.90705182e+01 2.15618812e+01 6.09019566e+01
 1.81056263e+02 2.45645396e+02 2.45661391e+02 5.56384786e+02]
beta-B2g nocc = 0
   mo_energy = [4.05065911e-01 1.27925450e+00 2.59883165e+00 2.61116778e+00
 3.28663555e+00 7.04524052e+00 7.06669503e+00 8.27569733e+00
 1.90408202e+01 1.90705182e+01 2.15618812e+01 6.09019566e+01
 1.81056263e+02 2.45645396e+02 2.45661391e+02 5.56384786e+02]
beta-B3g nocc = 0
   mo_energy = [4.02697849e-01 1.28868335e+00 2.58805856e+00 2.60654207e+00
 3.30028611e+00 7.02647224e+00 7.05865124e+00 8.27115521e+00
 1.90149250e+01 1.90593688e+01 2.15388915e+01 6.08752911e+01
 1.81037250e+02 2.45631410e+02 2.45655391e+02 5.56375337e+02]
beta-Au nocc = 0
   mo_energy = [  0.97249595   2.8767877    6.15567482   6.17604879   7.38455474
  16.17836241  16.20966371  19.08088475  71.7144599  291.37172458]
beta-B1u nocc = 0
   mo_energy = [5.77881337e-02 1.58914356e-01 5.64675917e-01 9.65918925e-01
 9.76480217e-01 1.71584071e+00 2.86591537e+00 2.88326454e+00
 4.80634252e+00 6.14048070e+00 6.16754359e+00 6.18116294e+00
 7.36747207e+00 7.39478049e+00 1.33008906e+01 1.61550155e+01
 1.61965975e+01 1.62175199e+01 1.90561285e+01 1.90957852e+01
 3.78285341e+01 7.16916134e+01 7.17281892e+01 1.07091606e+02
 2.91359185e+02 2.91379249e+02 2.98286052e+02 8.37009893e+02]
beta-B2u nocc = 0
   mo_energy = [5.77881337e-02 1.58914356e-01 5.64675917e-01 9.65918925e-01
 9.76480217e-01 1.71584071e+00 2.86591537e+00 2.88326454e+00
 4.80634252e+00 6.14048070e+00 6.16754359e+00 6.18116294e+00
 7.36747207e+00 7.39478049e+00 1.33008906e+01 1.61550155e+01
 1.61965975e+01 1.62175199e+01 1.90561285e+01 1.90957852e+01
 3.78285341e+01 7.16916134e+01 7.17281892e+01 1.07091606e+02
 2.91359185e+02 2.91379249e+02 2.98286052e+02 8.37009893e+02]
beta-B3u nocc = 1  HOMO = -0.521693882216178  LUMO = 0.111608688756141
   mo_energy = [-5.21693882e-01  1.11608689e-01  5.05039937e-01  9.72495947e-01
  9.77801802e-01  1.66409576e+00  2.87678770e+00  2.88541046e+00
  4.78814685e+00  6.15567482e+00  6.17604879e+00  6.18286949e+00
  7.38455474e+00  7.39818540e+00  1.33170827e+01  1.61783624e+01
  1.62096637e+01  1.62201414e+01  1.90808847e+01  1.91007599e+01
  3.78607985e+01  7.17144599e+01  7.17327693e+01  1.07121159e+02
  2.91371725e+02  2.91381758e+02  2.98305073e+02  8.37019101e+02]
multiplicity <S^2> = 2.0093765  2S+1 = 3.0062445
E1 = -103.25152019511549  Ecoul = 28.43267560441954
cycle= 58 E= -74.8188445906959  delta_E= 2.84e-14  |g|= 3.38e-12  |ddm|= 4.75e-13
    CPU time for cycle= 58      1.68 sec, wall time      0.42 sec
alpha HOMO (B3u) = -0.611629210637085  LUMO (B2u) = 0.104223176419295
alpha irrep_nelec = [2, 0, 0, 0, 0, 1, 1, 1]
beta  irrep_nelec = [2, 0, 0, 0, 0, 0, 0, 1]
alpha-Ag nocc = 2  HOMO = -1.41831621252369  LUMO = 0.12101746839017
   mo_energy = [-2.07075486e+01 -1.41831621e+00  1.21017468e-01  3.91733710e-01
  4.04042722e-01  7.17329907e-01  1.20833226e+00  1.24889068e+00
  2.57314734e+00  2.59929198e+00  2.60821901e+00  2.76513971e+00
  3.14719001e+00  3.21731555e+00  6.97600718e+00  7.02929457e+00
  7.04735365e+00  8.12454909e+00  8.20838055e+00  9.14200140e+00
  1.89377497e+01  1.90107681e+01  1.90353258e+01  2.14424391e+01
  2.15217635e+01  2.80561649e+01  6.08291912e+01  6.08871181e+01
  8.07940399e+01  1.81021153e+02  1.81053988e+02  2.18579330e+02
  2.45615403e+02  2.45644892e+02  2.45654730e+02  5.56370878e+02
  5.56385394e+02  5.82134154e+02  2.06763164e+03]
alpha-B1g nocc = 0
   mo_energy = [4.00847145e-01 1.23818795e+00 2.58828906e+00 2.60597643e+00
 3.19903024e+00 7.00693775e+00 7.04282368e+00 8.18698618e+00
 1.89802265e+01 1.90291758e+01 2.15017522e+01 6.08725946e+01
 1.81045770e+02 2.45632601e+02 2.45652270e+02 5.56381764e+02]
alpha-B2g nocc = 0
   mo_energy = [4.00847145e-01 1.23818795e+00 2.58828906e+00 2.60597643e+00
 3.19903024e+00 7.00693775e+00 7.04282368e+00 8.18698618e+00
 1.89802265e+01 1.90291758e+01 2.15017522e+01 6.08725946e+01
 1.81045770e+02 2.45632601e+02 2.45652270e+02 5.56381764e+02]
alpha-B3g nocc = 0
   mo_energy = [3.91733710e-01 1.20833226e+00 2.57314734e+00 2.59929198e+00
 3.14719001e+00 6.97600718e+00 7.02929457e+00 8.12454909e+00
 1.89377497e+01 1.90107681e+01 2.14424391e+01 6.08291912e+01
 1.81021153e+02 2.45615403e+02 2.45644892e+02 5.56370878e+02]
alpha-Au nocc = 0
   mo_energy = [  0.96788274   2.84440313   6.13728293   6.16458244   7.31563294
  16.13710505  16.18106823  19.00972994  71.67893575 291.3633701 ]
alpha-B1u nocc = 1  HOMO = -0.711069558786754  LUMO = 0.104223176419322
   mo_energy = [-7.11069559e-01  1.04223176e-01  4.69654662e-01  9.57849720e-01
  9.74048738e-01  1.58502865e+00  2.81726033e+00  2.86103206e+00
  4.67897410e+00  6.11703742e+00  6.15316444e+00  6.17146340e+00
  7.27020888e+00  7.34328575e+00  1.32063950e+01  1.61044084e+01
  1.61626985e+01  1.61921260e+01  1.89586021e+01  1.90406401e+01
  3.77760651e+01  7.16435603e+01  7.17002017e+01  1.07069259e+02
  2.91347994e+02  2.91372596e+02  2.98278062e+02  8.37007361e+02]
alpha-B2u nocc = 1  HOMO = -0.711069558786794  LUMO = 0.104223176419295
   mo_energy = [-7.11069559e-01  1.04223176e-01  4.69654662e-01  9.57849720e-01
  9.74048738e-01  1.58502865e+00  2.81726033e+00  2.86103206e+00
  4.67897410e+00  6.11703742e+00  6.15316444e+00  6.17146340e+00
  7.27020888e+00  7.34328575e+00  1.32063950e+01  1.61044084e+01
  1.61626985e+01  1.61921260e+01  1.89586021e+01  1.90406401e+01
  3.77760651e+01  7.16435603e+01  7.17002017e+01  1.07069259e+02
  2.91347994e+02  2.91372596e+02  2.98278062e+02  8.37007361e+02]
alpha-B3u nocc = 1  HOMO = -0.611629210637085  LUMO = 0.10967367692172
   mo_energy = [-6.11629211e-01  1.09673677e-01  4.92088639e-01  9.67882737e-01
  9.76134813e-01  1.63493966e+00  2.84440313e+00  2.86664511e+00
  4.75068769e+00  6.13728293e+00  6.16458244e+00  6.17376214e+00
  7.31563294e+00  7.35257963e+00  1.32832136e+01  1.61371050e+01
  1.61810682e+01  1.61958180e+01  1.90097299e+01  1.90509849e+01
  3.78392607e+01  7.16789357e+01  7.17072972e+01  1.07111031e+02
  2.91363370e+02  2.91375672e+02  2.98301121e+02  8.37017698e+02]
beta-Ag nocc = 2  HOMO = -1.07557457984913  LUMO = 0.129897525677244
   mo_energy = [-2.06292674e+01 -1.07557458e+00  1.29897526e-01  4.02697849e-01
  4.06073838e-01  7.58701258e-01  1.27697769e+00  1.28868335e+00
  2.58805856e+00  2.60654207e+00  2.61270905e+00  2.84151984e+00
  3.28314216e+00  3.30028611e+00  7.02647224e+00  7.05865124e+00
  7.06937548e+00  8.27115521e+00  8.27731107e+00  9.21806298e+00
  1.90149250e+01  1.90593688e+01  1.90742379e+01  2.15388915e+01
  2.15696229e+01  2.81043213e+01  6.08752911e+01  6.09108789e+01
  8.08165843e+01  1.81037250e+02  1.81062610e+02  2.18588329e+02
  2.45631410e+02  2.45655391e+02  2.45663391e+02  5.56375337e+02
  5.56387937e+02  5.82137390e+02  2.06763286e+03]
beta-B1g nocc = 0
   mo_energy = [4.05065911e-01 1.27925450e+00 2.59883165e+00 2.61116778e+00
 3.28663555e+00 7.04524052e+00 7.06669503e+00 8.27569733e+00
 1.90408202e+01 1.90705182e+01 2.15618812e+01 6.09019566e+01
 1.81056263e+02 2.45645396e+02 2.45661391e+02 5.56384786e+02]
beta-B2g nocc = 0
   mo_energy = [4.05065911e-01 1.27925450e+00 2.59883165e+00 2.61116778e+00
 3.28663555e+00 7.04524052e+00 7.06669503e+00 8.27569733e+00
 1.90408202e+01 1.90705182e+01 2.15618812e+01 6.09019566e+01
 1.81056263e+02 2.45645396e+02 2.45661391e+02 5.56384786e+02]
beta-B3g nocc = 0
   mo_energy = [4.02697849e-01 1.28868335e+00 2.58805856e+00 2.60654207e+00
 3.30028611e+00 7.02647224e+00 7.05865124e+00 8.27115521e+00
 1.90149250e+01 1.90593688e+01 2.15388915e+01 6.08752911e+01
 1.81037250e+02 2.45631410e+02 2.45655391e+02 5.56375337e+02]
beta-Au nocc = 0
   mo_energy = [  0.97249595   2.8767877    6.15567482   6.17604879   7.38455474
  16.17836241  16.20966371  19.08088475  71.7144599  291.37172458]
beta-B1u nocc = 0
   mo_energy = [5.77881337e-02 1.58914356e-01 5.64675917e-01 9.65918925e-01
 9.76480217e-01 1.71584071e+00 2.86591537e+00 2.88326454e+00
 4.80634252e+00 6.14048070e+00 6.16754359e+00 6.18116294e+00
 7.36747207e+00 7.39478049e+00 1.33008906e+01 1.61550155e+01
 1.61965975e+01 1.62175199e+01 1.90561285e+01 1.90957852e+01
 3.78285341e+01 7.16916134e+01 7.17281892e+01 1.07091606e+02
 2.91359185e+02 2.91379249e+02 2.98286052e+02 8.37009893e+02]
beta-B2u nocc = 0
   mo_energy = [5.77881337e-02 1.58914356e-01 5.64675917e-01 9.65918925e-01
 9.76480217e-01 1.71584071e+00 2.86591537e+00 2.88326454e+00
 4.80634252e+00 6.14048070e+00 6.16754359e+00 6.18116294e+00
 7.36747207e+00 7.39478049e+00 1.33008906e+01 1.61550155e+01
 1.61965975e+01 1.62175199e+01 1.90561285e+01 1.90957852e+01
 3.78285341e+01 7.16916134e+01 7.17281892e+01 1.07091606e+02
 2.91359185e+02 2.91379249e+02 2.98286052e+02 8.37009893e+02]
beta-B3u nocc = 1  HOMO = -0.521693882216226  LUMO = 0.111608688756119
   mo_energy = [-5.21693882e-01  1.11608689e-01  5.05039937e-01  9.72495947e-01
  9.77801802e-01  1.66409576e+00  2.87678770e+00  2.88541046e+00
  4.78814685e+00  6.15567482e+00  6.17604879e+00  6.18286949e+00
  7.38455474e+00  7.39818540e+00  1.33170827e+01  1.61783624e+01
  1.62096637e+01  1.62201414e+01  1.90808847e+01  1.91007599e+01
  3.78607985e+01  7.17144599e+01  7.17327693e+01  1.07121159e+02
  2.91371725e+02  2.91381758e+02  2.98305073e+02  8.37019101e+02]
multiplicity <S^2> = 2.0093765  2S+1 = 3.0062445
E1 = -103.25152019511634  Ecoul = 28.432675604420357
Extra cycle  E= -74.818844590696  delta_E= -4.26e-14  |g|= 5.72e-12  |ddm|= 4.75e-13
    CPU time for scf_cycle    129.95 sec, wall time     33.25 sec
    CPU time for SCF    129.97 sec, wall time     33.26 sec
converged SCF energy = -74.818844590696  <S^2> = 2.0093765  2S+1 = 3.0062445
